<UPF version="2.0.1">
  <PP_INFO>
    Generated by new atomic code, or converted to UPF format
    Author: 
    Generation date: 
    Pseudopotential type: US
    Element: ba
    Functional:  SLA  PZ   NOGX NOGC

    Suggested minimum cutoff for wavefunctions:   0. Ry
    Suggested minimum cutoff for charge density:   0. Ry
    The Pseudo was generated with a Scalar-Relativistic Calculation
    L component and cutoff radius for Local Potential:  0   0.0000

    Valence configuration: 
    nl pn  l   occ       Rcut    Rcut US       E pseu
    5S  0  0  2.00      0.800      2.500     0.000000
    5P  0  1  6.00      0.800      1.800     0.000000
    6S  0  0  2.00      0.800      2.500     0.000000

    Generation configuration: not available.
  </PP_INFO>
  <!--                               -->
  <!-- END OF HUMAN READABLE SECTION -->
  <!--                               -->
  <PP_HEADER generated="Generated by new atomic code, or converted to UPF format"
             author=""
             date=""
             comment=""
             element="Ba"
             pseudo_type="US"
             relativistic="scalar"
             is_ultrasoft="T"
             is_paw="F"
             is_coulomb="F"
             has_so="F"
             has_wfc="F"
             has_gipaw="F"
             paw_as_gipaw="F"
             core_correction="F"
             functional=" SLA  PZ   NOGX NOGC"
             z_valence="1.000000000000000E+001"
             total_psenergy="-5.127589020598000E+001"
             wfc_cutoff="0.000000000000000E+000"
             rho_cutoff="0.000000000000000E+000"
             l_max="2"
             l_max_rho="0"
             l_local="0"
             mesh_size="881"
             number_of_wfc="3"
             number_of_proj="6"/>
  <PP_MESH dx="Infinity" mesh="881" xmin="-Infinity" rmax="1.446979272380000E+002" zmesh="5.600000000000000E+001">
    <PP_R type="real" size="881" columns="4">
 0.000000000000000E+000  1.021794845760000E-009  2.069456551190000E-009  3.143639938970000E-009 
 4.245016408670000E-009  5.374274356450000E-009  6.532119605270000E-009  7.719275846120001E-009 
 8.936485090290000E-009  1.018450813320000E-008  1.146412502980000E-008  1.277613558240000E-008 
 1.412135984030000E-008  1.550063861240000E-008  1.691483399280000E-008  1.836482989970000E-008 
 1.985153262780000E-008  2.137587141470000E-008  2.293879902160000E-008  2.454129232930000E-008 
 2.618435294820000E-008  2.786900784470000E-008  2.959630998290000E-008  3.136733898300000E-008 
 3.318320179560000E-008  3.504503339420000E-008  3.695399748410000E-008  3.891128723010000E-008 
 4.091812600180000E-008  4.297576813900000E-008  4.508549973480000E-008  4.724863944020000E-008 
 4.946653928800000E-008  5.174058553780000E-008  5.407219954250000E-008  5.646283863670000E-008 
 5.891399704770000E-008  6.142720682930000E-008  6.400403881939999E-008  6.664610362190000E-008 
 6.935505261329999E-008  7.213257897500000E-008  7.498041875120000E-008  7.790035193470000E-008 
 8.089420357850000E-008  8.396384493760000E-008  8.711119463770000E-008  9.033821987470001E-008 
 9.364693764460000E-008  9.703941600350001E-008  1.005177753610000E-007  1.040841898050000E-007 
 1.077408884600000E-007  1.114901568830000E-007  1.153343384870000E-007  1.192758360130000E-007 
 1.233171130230000E-007  1.274606954470000E-007  1.317091731600000E-007  1.360652015990000E-007 
 1.405315034220000E-007  1.451108702150000E-007  1.498061642290000E-007  1.546203201780000E-007 
 1.595563470640000E-007  1.646173300670000E-007  1.698064324630000E-007  1.751268976130000E-007 
 1.805820509790000E-007  1.861753022100000E-007  1.919101472690000E-007  1.977901706230000E-007 
 2.038190474770000E-007  2.100005460750000E-007  2.163385300540000E-007  2.228369608630000E-007 
 2.294999002300000E-007  2.363315127100000E-007  2.433360682840000E-007  2.505179450260000E-007 
 2.578816318440000E-007  2.654317312810000E-007  2.731729623950000E-007  2.811101637080000E-007 
 2.892482962290000E-007  2.975924465550000E-007  3.061478300520000E-007  3.149197941140000E-007 
 3.239138215030000E-007  3.331355337800000E-007  3.425906948140000E-007  3.522852143900000E-007 
 3.622251518970000E-007  3.724167201200000E-007  3.828662891210000E-007  3.935803902210000E-007 
 4.045657200810000E-007  4.158291448900000E-007  4.273777046570000E-007  4.392186176050000E-007 
 4.513592846920000E-007  4.638072942300000E-007  4.765704266290000E-007  4.896566592630000E-007 
 5.030741714540000E-007  5.168313495830000E-007  5.309367923340000E-007  5.453993160690000E-007 
 5.602279603350000E-007  5.754319935170000E-007  5.910209186330000E-007  6.070044792660000E-007 
 6.233926656630000E-007  6.401957209740000E-007  6.574241476560000E-007  6.750887140350000E-007 
 6.932004610410000E-007  7.117707091060000E-007  7.308110652390000E-007  7.503334302810000E-007 
 7.703500063480000E-007  7.908733044510000E-007  8.119161523180000E-007  8.334917024160000E-007 
 8.556134401640000E-007  8.782951923700000E-007  9.015511358670000E-007  9.253958063760000E-007 
 9.498441075930000E-007  9.749113205020000E-007  1.000613112930000E-006  1.026965549320000E-006 
 1.053985100830000E-006  1.081688655530000E-006  1.110093529060000E-006  1.139217475390000E-006 
 1.169078697930000E-006  1.199695860910000E-006  1.231088101070000E-006  1.263275039570000E-006 
 1.296276794300000E-006  1.330113992430000E-006  1.364807783300000E-006  1.400379851670000E-006 
 1.436852431240000E-006  1.474248318560000E-006  1.512590887280000E-006  1.551904102740000E-006 
 1.592212536990000E-006  1.633541384110000E-006  1.675916475970000E-006  1.719364298400000E-006 
 1.763912007680000E-006  1.809587447600000E-006  1.856419166780000E-006  1.904436436570000E-006 
 1.953669269340000E-006  2.004148437210000E-006  2.055905491290000E-006  2.108972781430000E-006 
 2.163383476420000E-006  2.219171584720000E-006  2.276371975690000E-006  2.335020401460000E-006 
 2.395153519200000E-006  2.456808914060000E-006  2.520025122670000E-006  2.584841657220000E-006 
 2.651299030150000E-006  2.719438779490000E-006  2.789303494800000E-006  2.860936843800000E-006 
 2.934383599650000E-006  3.009689668990000E-006  3.086902120550000E-006  3.166069214620000E-006 
 3.247240433220000E-006  3.330466511010000E-006  3.415799466980000E-006  3.503292637020000E-006 
 3.593000707210000E-006  3.684979748000000E-006  3.779287249300000E-006  3.875982156360000E-006 
 3.975124906640000E-006  4.076777467600000E-006  4.181003375390000E-006  4.287867774590000E-006 
 4.397437458950000E-006  4.509780913060000E-006  4.624968355260000E-006  4.743071781440000E-006 
 4.864165010090000E-006  4.988323728420000E-006  5.115625539660000E-006  5.246150011600000E-006 
 5.379978726280000E-006  5.517195331000000E-006  5.657885590610000E-006  5.802137441100000E-006 
 5.950041044560000E-006  6.101688845580000E-006  6.257175628950000E-006  6.416598578990000E-006 
 6.580057340220000E-006  6.747654079690000E-006  6.919493550820000E-006  7.095683158870000E-006 
 7.276333028090000E-006  7.461556070510000E-006  7.651468056580000E-006  7.846187687469999E-006 
 8.045836669280000E-006  8.250539789130000E-006  8.460424993130000E-006  8.675623466360000E-006 
 8.896269714890000E-006  9.122501649779999E-006  9.354460673379999E-006  9.592291767610000E-006 
 9.836143584660001E-006  1.008616853980000E-005  1.034252290690000E-005  1.060536691570000E-005 
 1.087486485220000E-005  1.115118516150000E-005  1.143450055270000E-005  1.172498810710000E-005 
 1.202282938910000E-005  1.232821055890000E-005  1.264132248990000E-005  1.296236088720000E-005 
 1.329152641020000E-005  1.362902479800000E-005  1.397506699830000E-005  1.432986929850000E-005 
 1.469365346180000E-005  1.506664686490000E-005  1.544908264110000E-005  1.584119982500000E-005 
 1.624324350260000E-005  1.665546496450000E-005  1.707812186230000E-005  1.751147837040000E-005 
 1.795580535070000E-005  1.841138052220000E-005  1.887848863390000E-005  1.935742164390000E-005 
 1.984847890070000E-005  2.035196733110000E-005  2.086820163190000E-005  2.139750446610000E-005 
 2.194020666550000E-005  2.249664743640000E-005  2.306717457250000E-005  2.365214467180000E-005 
 2.425192335970000E-005  2.486688551730000E-005  2.549741551610000E-005  2.614390745780000E-005 
 2.680676542090000E-005  2.748640371320000E-005  2.818324713090000E-005  2.889773122360000E-005 
 2.963030256730000E-005  3.038141904280000E-005  3.115155012240000E-005  3.194117716310000E-005 
 3.275079370750000E-005  3.358090579240000E-005  3.443203226470000E-005  3.530470510620000E-005 
 3.619946976590000E-005  3.711688550080000E-005  3.805752572550000E-005  3.902197837100000E-005 
 4.001084625140000E-005  4.102474744140000E-005  4.206431566220000E-005  4.313020067780000E-005 
 4.422306870110000E-005  4.534360281000000E-005  4.649250337500000E-005  4.767048849630000E-005 
 4.887829445290000E-005  5.011667616280000E-005  5.138640765500000E-005  5.268828255300000E-005 
 5.402311457090000E-005  5.539173802220000E-005  5.679500834110000E-005  5.823380261730000E-005 
 5.970902014400000E-005  6.122158298020001E-005  6.277243652690000E-005  6.436255011800000E-005 
 6.599291762640000E-005  6.766455808470000E-005  6.937851632269999E-005  7.113586362000001E-005 
 7.293769837600000E-005  7.478514679599999E-005  7.667936359550000E-005  7.862153272150000E-005 
 8.061286809300000E-005  8.265461435939999E-005  8.474804767870000E-005  8.689447651470000E-005 
 8.909524245540000E-005  9.135172105120000E-005  9.366532267450000E-005  9.603749340190000E-005 
 9.846971591699999E-005  1.009635104380000E-004  1.035204356680000E-004  1.061420897690000E-004 
 1.088301113590000E-004  1.115861805400000E-004  1.144120199440000E-004  1.173093958130000E-004 
 1.202801191010000E-004  1.233260466080000E-004  1.264490821370000E-004  1.296511776860000E-004 
 1.329343346700000E-004  1.363006051690000E-004  1.397520932110000E-004  1.432909560890000E-004 
 1.469194057070000E-004  1.506397099650000E-004  1.544541941730000E-004  1.583652425090000E-004 
 1.623752995050000E-004  1.664868715770000E-004  1.707025285920000E-004  1.750249054720000E-004 
 1.794567038430000E-004  1.840006937250000E-004  1.886597152580000E-004  1.934366804830000E-004 
 1.983345751580000E-004  2.033564606270000E-004  2.085054757320000E-004  2.137848387750000E-004 
 2.191978495300000E-004  2.247478913040000E-004  2.304384330550000E-004  2.362730315560000E-004 
 2.422553336210000E-004  2.483890783840000E-004  2.546780996360000E-004  2.611263282180000E-004 
 2.677377944830000E-004  2.745166308150000E-004  2.814670742040000E-004  2.885934689060000E-004 
 2.959002691490000E-004  3.033920419210000E-004  3.110734698230000E-004  3.189493539980000E-004 
 3.270246171310000E-004  3.353043065230000E-004  3.437935972500000E-004  3.524977953940000E-004 
 3.614223413640000E-004  3.705728132910000E-004  3.799549305170000E-004  3.895745571720000E-004 
 3.994377058350000E-004  4.095505412950000E-004  4.199193844040000E-004  4.305507160250000E-004 
 4.414511810880000E-004  4.526275927380000E-004  4.640869365960000E-004  4.758363751240000E-004 
 4.878832521050000E-004  5.002350972290000E-004  5.128996308010000E-004  5.258847685660000E-004 
 5.391986266590000E-004  5.528495266740000E-004  5.668460008690000E-004  5.811967974950000E-004 
 5.959108862660000E-004  6.109974639690000E-004  6.264659602040000E-004  6.423260432860000E-004 
 6.585876262830000E-004  6.752608732130000E-004  6.923562053980000E-004  7.098843079790000E-004 
 7.278561365890000E-004  7.462829242059999E-004  7.651761881720000E-004  7.845477373930000E-004 
 8.044096797170000E-004  8.247744295050000E-004  8.456547153880000E-004  8.670635882250000E-004 
 8.890144292580000E-004  9.115209584780000E-004  9.345972431970000E-004  9.582577068450000E-004 
 9.825171379820000E-004  1.007390699540000E-003  1.032893938310000E-003  1.059042794640000E-003 
 1.085853612430000E-003  1.113343149290000E-003  1.141528587090000E-003  1.170427542650000E-003 
 1.200058078760000E-003  1.230438715450000E-003  1.261588441630000E-003  1.293526726870000E-003 
 1.326273533660000E-003  1.359849329810000E-003  1.394275101280000E-003  1.429572365310000E-003 
 1.465763183830000E-003  1.502870177280000E-003  1.540916538750000E-003  1.579926048440000E-003 
 1.619923088570000E-003  1.660932658590000E-003  1.702980390820000E-003  1.746092566460000E-003 
 1.790296132020000E-003  1.835618716180000E-003  1.882088647010000E-003  1.929734969740000E-003 
 1.978587464870000E-003  2.028676666810000E-003  2.080033882930000E-003  2.132691213170000E-003 
 2.186681570060000E-003  2.242038699350000E-003  2.298797201040000E-003  2.356992551040000E-003 
 2.416661123340000E-003  2.477840212740000E-003  2.540568058160000E-003  2.604883866550000E-003 
 2.670827837380000E-003  2.738441187780000E-003  2.807766178290000E-003  2.878846139290000E-003 
 2.951725498070000E-003  3.026449806610000E-003  3.103065770020000E-003  3.181621275780000E-003 
 3.262165423630000E-003  3.344748556300000E-003  3.429422290920000E-003  3.516239551340000E-003 
 3.605254601170000E-003  3.696523077710000E-003  3.790102026740000E-003  3.886049938140000E-003 
 3.984426782480000E-003  4.085294048500000E-003  4.188714781510000E-003  4.294753622840000E-003 
 4.403476850220000E-003  4.514952419200000E-003  4.629250005650000E-003  4.746441049280000E-003 
 4.866598798300000E-003  4.989798355210000E-003  5.116116723760000E-003  5.245632857040000E-003 
 5.378427706840000E-003  5.514584274260000E-003  5.654187661600000E-003  5.797325125520000E-003 
 5.944086131580000E-003  6.094562410210000E-003  6.248848013960000E-003  6.407039376370000E-003 
 6.569235372180000E-003  6.735537379170000E-003  6.906049341520000E-003  7.080877834740000E-003 
 7.260132132340000E-003  7.443924274090000E-003  7.632369136060000E-003  7.825584502420000E-003 
 8.023691139070000E-003  8.226812869100000E-003  8.435076650210000E-003  8.648612654030000E-003 
 8.867554347540000E-003  9.092038576400001E-003  9.322205650560000E-003  9.558199431960001E-003 
 9.800167424369999E-003  1.004826086570000E-002  1.030263482230000E-002  1.056344828640000E-002 
 1.083086427470000E-002  1.110504993100000E-002  1.138617663020000E-002  1.167442008570000E-002 
 1.196996045900000E-002  1.227298247250000E-002  1.258367552480000E-002  1.290223380920000E-002 
 1.322885643490000E-002  1.356374755170000E-002  1.390711647750000E-002  1.425917782910000E-002 
 1.462015165620000E-002  1.499026357930000E-002  1.536974493030000E-002  1.575883289740000E-002 
 1.615777067330000E-002  1.656680760710000E-002  1.698619936020000E-002  1.741620806610000E-002 
 1.785710249410000E-002  1.830915821780000E-002  1.877265778650000E-002  1.924789090280000E-002 
 1.973515460260000E-002  2.023475344170000E-002  2.074699968570000E-002  2.127221350510000E-002 
 2.181072317550000E-002  2.236286528330000E-002  2.292898493500000E-002  2.350943597390000E-002 
 2.410458120080000E-002  2.471479260090000E-002  2.534045157610000E-002  2.598194918370000E-002 
 2.663968638060000E-002  2.731407427380000E-002  2.800553437790000E-002  2.871449887780000E-002 
 2.944141089950000E-002  3.018672478660000E-002  3.095090638460000E-002  3.173443333190000E-002 
 3.253779535820000E-002  3.336149459110000E-002  3.420604586940000E-002  3.507197706500000E-002 
 3.595982941320000E-002  3.687015785070000E-002  3.780353136220000E-002  3.876053333670000E-002 
 3.974176193150000E-002  4.074783044640000E-002  4.177936770710000E-002  4.283701845780000E-002 
 4.392144376480000E-002  4.503332142910000E-002  4.617334641050000E-002  4.734223126170000E-002 
 4.854070657370000E-002  4.976952143280000E-002  5.102944388810000E-002  5.232126143220000E-002 
 5.364578149320000E-002  5.500383193910000E-002  5.639626159570000E-002  5.782394077690000E-002 
 5.928776182870000E-002  6.078863968680000E-002  6.232751244880000E-002  6.390534196019999E-002 
 6.552311441590000E-002  6.718184097630001E-002  6.888255839940000E-002  7.062632968910000E-002 
 7.241424475920000E-002  7.424742111480000E-002  7.612700455070000E-002  7.805416986789999E-002 
 8.003012160730000E-002  8.205609480320000E-002  8.413335575470000E-002  8.626320281750000E-002 
 8.844696721549999E-002  9.068601387230001E-002  9.298174226519999E-002  9.533558729900000E-002 
 9.774902020350000E-002  1.002235494530000E-001  1.027607217090000E-001  1.053621227860000E-001 
 1.080293786440000E-001  1.107641564070000E-001  1.135681653980000E-001  1.164431582140000E-001 
 1.193909318210000E-001  1.224133286710000E-001  1.255122378620000E-001  1.286895963120000E-001 
 1.319473899750000E-001  1.352876550770000E-001  1.387124793920000E-001  1.422240035480000E-001 
 1.458244223610000E-001  1.495159862110000E-001  1.533010024440000E-001  1.571818368190000E-001 
 1.611609149840000E-001  1.652407239920000E-001  1.694238138580000E-001  1.737127991470000E-001 
 1.781103606160000E-001  1.826192468830000E-001  1.872422761500000E-001  1.919823379600000E-001 
 1.968423950060000E-001  2.018254849810000E-001  2.069347224800000E-001  2.121733009420000E-001 
 2.175444946500000E-001  2.230516607730000E-001  2.286982414700000E-001  2.344877660390000E-001 
 2.404238531190000E-001  2.465102129600000E-001  2.527506497330000E-001  2.591490639150000E-001 
 2.657094547240000E-001  2.724359226170000E-001  2.793326718550000E-001  2.864040131310000E-001 
 2.936543662640000E-001  3.010882629600000E-001  3.087103496470000E-001  3.165253903770000E-001 
 3.245382698060000E-001  3.327539962420000E-001  3.411777047840000E-001  3.498146605230000E-001 
 3.586702618370000E-001  3.677500437650000E-001  3.770596814680000E-001  3.866049937710000E-001 
 3.963919468060000E-001  4.064266577360000E-001  4.167153985820000E-001  4.272646001440000E-001 
 4.380808560140000E-001  4.491709267050000E-001  4.605417438730000E-001  4.722004146470000E-001 
 4.841542260770000E-001  4.964106496850000E-001  5.089773461330001E-001  5.218621700160000E-001 
 5.350731747690000E-001  5.486186177000000E-001  5.625069651500000E-001  5.767468977910000E-001 
 5.913473160420000E-001  6.063173456410000E-001  6.216663433439999E-001  6.374039027740001E-001 
 6.535398604170000E-001  6.700843017730000E-001  6.870475676550000E-001  7.044402606580000E-001 
 7.222732517810000E-001  7.405576872230000E-001  7.593049953520000E-001  7.785268938460000E-001 
 7.982353970170000E-001  8.184428233220000E-001  8.391618030580000E-001  8.604052862640000E-001 
 8.821865508070000E-001  9.045192106880000E-001  9.274172245450000E-001  9.508949043820000E-001 
 9.749669245150000E-001  9.996483307380000E-001  1.024954549730000E+000  1.050901398710000E+000 
 1.077505095300000E+000  1.104782267680000E+000  1.132749964960000E+000  1.161425667870000E+000 
 1.190827299650000E+000  1.220973237290000E+000  1.251882322970000E+000  1.283573875880000E+000 
 1.316067704270000E+000  1.349384117850000E+000  1.383543940450000E+000  1.418568523070000E+000 
 1.454479757230000E+000  1.491300088600000E+000  1.529052531100000E+000  1.567760681240000E+000 
 1.607448732860000E+000  1.648141492290000E+000  1.689864393830000E+000  1.732643515650000E+000 
 1.776505596100000E+000  1.821478050400000E+000  1.867588987800000E+000  1.914867229140000E+000 
 1.963342324850000E+000  2.013044573460000E+000  2.064005040480000E+000  2.116255577860000E+000 
 2.169828843900000E+000  2.224758323620000E+000  2.281078349740000E+000  2.338824124120000E+000 
 2.398031739730000E+000  2.458738203260000E+000  2.520981458230000E+000  2.584800408710000E+000 
 2.650234943610000E+000  2.717325961650000E+000  2.786115396890000E+000  2.856646244980000E+000 
 2.928962589990000E+000  3.003109631990000E+000  3.079133715300000E+000  3.157082357430000E+000 
 3.237004278840000E+000  3.318949433310000E+000  3.402969039260000E+000  3.489115611650000E+000 
 3.577442994900000E+000  3.668006396510000E+000  3.760862421540000E+000  3.856069108040000E+000 
 3.953685963280000E+000  4.053774000980000E+000  4.156395779420000E+000  4.261615440540000E+000 
 4.369498750070000E+000  4.480113138580000E+000  4.593527743670000E+000  4.709813453150000E+000 
 4.829042949390000E+000  4.951290754690000E+000  5.076633277920000E+000  5.205148862230000E+000 
 5.336917834050000E+000  5.472022553270000E+000  5.610547464740000E+000  5.752579151040000E+000 
 5.898206386590000E+000  6.047520193170000E+000  6.200613896760000E+000  6.357583185900000E+000 
 6.518526171520000E+000  6.683543448210000E+000  6.852738157160000E+000  7.026216050550000E+000 
 7.204085557720000E+000  7.386457852910000E+000  7.573446924720000E+000  7.765169647430000E+000 
 7.961745853970000E+000  8.163298410870000E+000  8.369953295040000E+000  8.581839672510000E+000 
 8.799089979160000E+000  9.021840003510000E+000  9.250228971569999E+000  9.484399633890000E+000 
 9.724498354740000E+000  9.970675203650000E+000  1.022308404920000E+001  1.048188265500000E+001 
 1.074723277880000E+001  1.101930027290000E+001  1.129825518840000E+001  1.158427188130000E+001 
 1.187752912110000E+001  1.217821020340000E+001  1.248650306350000E+001  1.280260039450000E+001 
 1.312669976750000E+001  1.345900375530000E+001  1.379972005850000E+001  1.414906163600000E+001 
 1.450724683760000E+001  1.487449954080000E+001  1.525104929050000E+001  1.563713144240000E+001 
 1.603298731050000E+001  1.643886431770000E+001  1.685501615020000E+001  1.728170291650000E+001 
 1.771919130970000E+001  1.816775477430000E+001  1.862767367710000E+001  1.909923548240000E+001 
 1.958273493160000E+001  2.007847422760000E+001  2.058676322360000E+001  2.110791961690000E+001 
 2.164226914700000E+001  2.219014579990000E+001  2.275189201630000E+001  2.332785890590000E+001 
 2.391840646670000E+001  2.452390381020000E+001  2.514472939190000E+001  2.578127124800000E+001 
 2.643392723790000E+001  2.710310529290000E+001  2.778922367100000E+001  2.849271121850000E+001 
 2.921400763810000E+001  2.995356376350000E+001  3.071184184130000E+001  3.148931582010000E+001 
 3.228647164640000E+001  3.310380756840000E+001  3.394183444780000E+001  3.480107607870000E+001 
 3.568206951510000E+001  3.658536540640000E+001  3.751152834210000E+001  3.846113720420000E+001 
 3.943478552910000E+001  4.043308187860000E+001  4.145665022050000E+001  4.250613031840000E+001 
 4.358217813150000E+001  4.468546622460000E+001  4.581668418880000E+001  4.697653907210000E+001 
 4.816575582160000E+001  4.938507773640000E+001  5.063526693240000E+001  5.191710481860000E+001 
 5.323139258540000E+001  5.457895170540000E+001  5.596062444690000E+001  5.737727440040000E+001 
 5.882978701830000E+001  6.031907016810000E+001  6.184605470030000E+001  6.341169503010000E+001 
 6.501696973340000E+001  6.666288215940000E+001  6.835046105680000E+001  7.008076121740000E+001 
 7.185486413500000E+001  7.367387868190001E+001  7.553894180130000E+001  7.745121921830000E+001 
 7.941190616860000E+001  8.142222814530000E+001  8.348344166520000E+001  8.559683505380001E+001 
 8.776372925070000E+001  8.998547863540000E+001  9.226347187350000E+001  9.459913278499999E+001 
 9.699392123400000E+001  9.944933404120000E+001  1.019669059200000E+002  1.045482104330000E+002 
 1.071948609820000E+002  1.099085118090000E+002  1.126908590330000E+002  1.155436417120000E+002 
 1.184686429290000E+002  1.214676909040000E+002  1.245426601400000E+002  1.276954725930000E+002 
 1.309280988730000E+002  1.342425594770000E+002  1.376409260510000E+002  1.411253226840000E+002 
 1.446979272380000E+002
    </PP_R>
    <PP_RAB type="real" size="881" columns="4">
 1.009075628120000E-009  1.034620499260000E-009  1.060812041900000E-009  1.087666626590000E-009 
 1.115201038330000E-009  1.143432487030000E-009  1.172378618250000E-009  1.202057524270000E-009 
 1.232487755370000E-009  1.263688331450000E-009  1.295678753860000E-009  1.328479017680000E-009 
 1.362109624120000E-009  1.396591593430000E-009  1.431946477940000E-009  1.468196375610000E-009 
 1.505363943810000E-009  1.543472413480000E-009  1.582545603660000E-009  1.622607936350000E-009 
 1.663684451820000E-009  1.705800824230000E-009  1.748983377690000E-009  1.793259102690000E-009 
 1.838655673010000E-009  1.885201462970000E-009  1.932925565220000E-009  1.981857808870000E-009 
 2.032028778160000E-009  2.083469831590000E-009  2.136213121490000E-009  2.190291614120000E-009 
 2.245739110320000E-009  2.302590266560000E-009  2.360880616680000E-009  2.420646594030000E-009 
 2.481925554310000E-009  2.544755798850000E-009  2.609176598600000E-009  2.675228218660000E-009 
 2.742951943450000E-009  2.812390102490000E-009  2.883586096900000E-009  2.956584426480000E-009 
 3.031430717580000E-009  3.108171751560000E-009  3.186855494060000E-009  3.267531124980000E-009 
 3.350249069230000E-009  3.435061028210000E-009  3.522020012140000E-009  3.611180373240000E-009 
 3.702597839620000E-009  3.796329550190000E-009  3.892434090300000E-009  3.990971528430000E-009 
 4.092003453680000E-009  4.195593014300000E-009  4.301804957130000E-009  4.410705668090000E-009 
 4.522363213670000E-009  4.636847383480000E-009  4.754229733850000E-009  4.874583632560000E-009 
 4.997984304730000E-009  5.124508879780000E-009  5.254236439700000E-009  5.387248068440000E-009 
 5.523626902580000E-009  5.663458183350000E-009  5.806829309850000E-009  5.953829893700000E-009 
 6.104551815040000E-009  6.259089279980000E-009  6.417538879480000E-009  6.579999649680000E-009 
 6.746573133860000E-009  6.917363445870000E-009  7.092477335220000E-009  7.272024253780000E-009 
 7.456116424220000E-009  7.644868910140000E-009  7.838399687990000E-009  8.036829720809999E-009 
 8.240283033830000E-009  8.448886791990000E-009  8.662771379420001E-009  8.882070480969999E-009 
 9.106921165699999E-009  9.337463972619999E-009  9.573842998479999E-009  9.816205987870000E-009 
 1.006470442550000E-008  1.031949363110000E-008  1.058073285610000E-008  1.084858538360000E-008 
 1.112321863010000E-008  1.140480425040000E-008  1.169351824450000E-008  1.198954106820000E-008 
 1.229305774540000E-008  1.260425798390000E-008  1.292333629380000E-008  1.325049210970000E-008 
 1.358592991450000E-008  1.392985936770000E-008  1.428249543650000E-008  1.464405852980000E-008 
 1.501477463650000E-008  1.539487546610000E-008  1.578459859390000E-008  1.618418760980000E-008 
 1.659389226970000E-008  1.701396865250000E-008  1.744467931950000E-008  1.788629347900000E-008 
 1.833908715420000E-008  1.880334335580000E-008  1.927935225910000E-008  1.976741138520000E-008 
 2.026782578680000E-008  2.078090823940000E-008  2.130697943610000E-008  2.184636818850000E-008 
 2.239941163220000E-008  2.296645543740000E-008  2.354785402480000E-008  2.414397078750000E-008 
 2.475517831790000E-008  2.538185864070000E-008  2.602440345130000E-008  2.668321436120000E-008 
 2.735870314880000E-008  2.805129201640000E-008  2.876141385460000E-008  2.948951251280000E-008 
 3.023604307630000E-008  3.100147215090000E-008  3.178627815490000E-008  3.259095161740000E-008 
 3.341599548560000E-008  3.426192543870000E-008  3.512927021060000E-008  3.601857191990000E-008 
 3.693038640920000E-008  3.786528359220000E-008  3.882384781000000E-008  3.980667819650000E-008 
 4.081438905280000E-008  4.184761023080000E-008  4.290698752740000E-008  4.399318308800000E-008 
 4.510687582010000E-008  4.624876181800000E-008  4.741955479750000E-008  4.861998654240000E-008 
 4.985080736170000E-008  5.111278655830000E-008  5.240671291030000E-008  5.373339516390000E-008 
 5.509366253870000E-008  5.648836524600000E-008  5.791837502040000E-008  5.938458566460000E-008 
 6.088791360800000E-008  6.242929847950000E-008  6.400970369480000E-008  6.563011705850000E-008 
 6.729155138190000E-008  6.899504511540000E-008  7.074166299809999E-008  7.253249672300000E-008 
 7.436866561950000E-008  7.625131735290000E-008  7.818162864180001E-008  8.016080599370000E-008 
 8.219008645870000E-008  8.427073840340000E-008  8.640406230270001E-008  8.859139155370000E-008 
 9.083409330830001E-008  9.313356932820001E-008  9.549125686060000E-008  9.790862953700000E-008 
 1.003871982940000E-007  1.029285123180000E-007  1.055341600130000E-007  1.082057699930000E-007 
 1.109450121020000E-007  1.137535984550000E-007  1.166332845100000E-007  1.195858701640000E-007 
 1.226132008800000E-007  1.257171688390000E-007  1.288997141200000E-007  1.321628259180000E-007 
 1.355085437850000E-007  1.389389589030000E-007  1.424562153930000E-007  1.460625116560000E-007 
 1.497601017420000E-007  1.535512967680000E-007  1.574384663520000E-007  1.614240401030000E-007 
 1.655105091340000E-007  1.697004276200000E-007  1.739964143990000E-007  1.784011546000000E-007 
 1.829174013300000E-007  1.875479773910000E-007  1.922957770430000E-007  1.971637678150000E-007 
 2.021549923600000E-007  2.072725703560000E-007  2.125197004560000E-007  2.178996622870000E-007 
 2.234158185000000E-007  2.290716168730000E-007  2.348705924630000E-007  2.408163698180000E-007 
 2.469126652450000E-007  2.531632891240000E-007  2.595721483010000E-007  2.661432485200000E-007 
 2.728806969330000E-007  2.797887046640000E-007  2.868715894440000E-007  2.941337783060000E-007 
 3.015798103540000E-007  3.092143396010000E-007  3.170421378760000E-007  3.250680978080000E-007 
 3.332972358820000E-007  3.417346955790000E-007  3.503857505850000E-007  3.592558080910000E-007 
 3.683504121720000E-007  3.776752472520000E-007  3.872361416550000E-007  3.970390712520000E-007 
 4.070901631940000E-007  4.173956997400000E-007  4.279621221850000E-007  4.387960348880000E-007 
 4.499042093970000E-007  4.612935886820000E-007  4.729712914770000E-007  4.849446167250000E-007 
 4.972210481450000E-007  5.098082589060000E-007  5.227141164250000E-007  5.359466872820000E-007 
 5.495142422650000E-007  5.634252615380000E-007  5.776884399400000E-007  5.923126924230000E-007 
 6.073071596200000E-007  6.226812135610000E-007  6.384444635300000E-007  6.546067620730000E-007 
 6.711782111510000E-007  6.881691684590000E-007  7.055902539000000E-007  7.234523562180000E-007 
 7.417666398100000E-007  7.605445516980000E-007  7.797978286880000E-007  7.995385047060000E-007 
 8.197789183160000E-007  8.405317204370000E-007  8.618098822450001E-007  8.836267032830000E-007 