<UPF version="2.0.1">
  <PP_INFO>
    Generated by new atomic code, or converted to UPF format
    Author: 
    Generation date: 
    Pseudopotential type: US
    Element: C
    Functional:  SLA  PW   PBE  PBE

    Suggested minimum cutoff for wavefunctions:   0. Ry
    Suggested minimum cutoff for charge density:   0. Ry
    The Pseudo was generated with a Non-Relativistic Calculation
    L component and cutoff radius for Local Potential:  0   0.0000

    Valence configuration: 
    nl pn  l   occ       Rcut    Rcut US       E pseu
    2S  0  0  2.00      1.200      1.600     0.000000
    2P  0  1  2.00      1.200      1.600     0.000000

    Generation configuration: not available.
  </PP_INFO>
  <!--                               -->
  <!-- END OF HUMAN READABLE SECTION -->
  <!--                               -->
  <PP_HEADER generated="Generated by new atomic code, or converted to UPF format"
             author=""
             date=""
             comment=""
             element="C "
             pseudo_type="US"
             relativistic="no"
             is_ultrasoft="T"
             is_paw="F"
             is_coulomb="F"
             has_so="F"
             has_wfc="F"
             has_gipaw="F"
             paw_as_gipaw="F"
             core_correction="F"
             functional=" SLA  PW   PBE  PBE"
             z_valence="4.000000000000000E+000"
             total_psenergy="-1.071556050100000E+001"
             wfc_cutoff="0.000000000000000E+000"
             rho_cutoff="0.000000000000000E+000"
             l_max="2"
             l_max_rho="0"
             l_local="0"
             mesh_size="627"
             number_of_wfc="2"
             number_of_proj="4"/>
  <PP_MESH dx="1.499999999999944E-002" mesh="627" xmin="-2.999999999999678E+000" rmax="9.930942994800000E+001"
zmesh="6.000000000000000E+000">
    <PP_R type="real" size="627" columns="4">
 8.297844727980000E-003  8.423250591520000E-003  8.550551721990001E-003  8.679776762660000E-003 
 8.810954789729999E-003  8.944115318790000E-003  9.079288311529999E-003  9.216504182450000E-003 
 9.355793805690000E-003  9.497188522010000E-003  9.640720145810000E-003  9.786420972310000E-003 
 9.934323784820001E-003  1.008446186210000E-002  1.023686898580000E-002  1.039157944830000E-002 
 1.054862805990000E-002  1.070805015740000E-002  1.086988161140000E-002  1.103415883450000E-002 
 1.120091879000000E-002  1.137019899940000E-002  1.154203755160000E-002  1.171647311090000E-002 
 1.189354492610000E-002  1.207329283900000E-002  1.225575729380000E-002  1.244097934570000E-002 
 1.262900067050000E-002  1.281986357360000E-002  1.301361100020000E-002  1.321028654410000E-002 
 1.340993445830000E-002  1.361259966420000E-002  1.381832776250000E-002  1.402716504290000E-002 
 1.423915849460000E-002  1.445435581700000E-002  1.467280543040000E-002  1.489455648700000E-002 
 1.511965888160000E-002  1.534816326320000E-002  1.558012104630000E-002  1.581558442240000E-002 
 1.605460637170000E-002  1.629724067520000E-002  1.654354192660000E-002  1.679356554470000E-002 
 1.704736778590000E-002  1.730500575680000E-002  1.756653742700000E-002  1.783202164220000E-002 
 1.810151813750000E-002  1.837508755070000E-002  1.865279143620000E-002  1.893469227850000E-002 
 1.922085350630000E-002  1.951133950740000E-002  1.980621564210000E-002  2.010554825890000E-002 
 2.040940470880000E-002  2.071785336100000E-002  2.103096361750000E-002  2.134880592960000E-002 
 2.167145181310000E-002  2.199897386460000E-002  2.233144577810000E-002  2.266894236110000E-002 
 2.301153955180000E-002  2.335931443600000E-002  2.371234526440000E-002  2.407071147060000E-002 
 2.443449368840000E-002  2.480377377040000E-002  2.517863480610000E-002  2.555916114080000E-002 
 2.594543839470000E-002  2.633755348160000E-002  2.673559462920000E-002  2.713965139840000E-002 
 2.754981470360000E-002  2.796617683340000E-002  2.838883147090000E-002  2.881787371530000E-002 
 2.925340010280000E-002  2.969550862880000E-002  3.014429876950000E-002  3.059987150460000E-002 
 3.106232933990000E-002  3.153177633030000E-002  3.200831810350000E-002  3.249206188320000E-002 
 3.298311651390000E-002  3.348159248500000E-002  3.398760195570000E-002  3.450125878020000E-002 
 3.502267853350000E-002  3.555197853720000E-002  3.608927788600000E-002  3.663469747460000E-002 
 3.718836002470000E-002  3.775039011270000E-002  3.832091419780000E-002  3.890006065020000E-002 
 3.948795978040000E-002  4.008474386810000E-002  4.069054719220000E-002  4.130550606120000E-002 
 4.192975884330000E-002  4.256344599800000E-002  4.320671010760000E-002  4.385969590930000E-002 
 4.452255032760000E-002  4.519542250760000E-002  4.587846384830000E-002  4.657182803690000E-002 
 4.727567108330000E-002  4.799015135510000E-002  4.871542961350000E-002  4.945166904900000E-002 
 5.019903531870000E-002  5.095769658310000E-002  5.172782354420000E-002  5.250958948390000E-002 
 5.330317030270000E-002  5.410874455970000E-002  5.492649351250000E-002  5.575660115810000E-002 
 5.659925427420000E-002  5.745464246120000E-002  5.832295818520000E-002  5.920439682080000E-002 
 6.009915669550000E-002  6.100743913400000E-002  6.192944850370000E-002  6.286539226050000E-002 
 6.381548099590000E-002  6.477992848359999E-002  6.575895172860000E-002  6.675277101509999E-002 
 6.776160995680000E-002  6.878569554650001E-002  6.982525820790000E-002  7.088053184699999E-002 
 7.195175390480001E-002  7.303916541079999E-002  7.414301103720000E-002  7.526353915380000E-002 
 7.640100188420000E-002  7.755565516240000E-002  7.872775879020000E-002  7.991757649580000E-002 
 8.112537599330000E-002  8.235142904270000E-002  8.359601151100000E-002  8.485940343459999E-002 
 8.614188908190000E-002  8.744375701779999E-002  8.876530016780000E-002  9.010681588489999E-002 
 9.146860601570000E-002  9.285097696870000E-002  9.425423978330000E-002  9.567871019940000E-002 
 9.712470872900000E-002  9.859256072780000E-002  1.000825964690000E-001  1.015951512160000E-001 
 1.031305653010000E-001  1.046891841980000E-001  1.062713586040000E-001  1.078774445130000E-001 
 1.095078033030000E-001  1.111628018100000E-001  1.128428124160000E-001  1.145482131320000E-001 
 1.162793876790000E-001  1.180367255780000E-001  1.198206222390000E-001  1.216314790450000E-001 
 1.234697034470000E-001  1.253357090530000E-001  1.272299157230000E-001  1.291527496600000E-001 
 1.311046435110000E-001  1.330860364600000E-001  1.350973743280000E-001  1.371391096760000E-001 
 1.392117019020000E-001  1.413156173480000E-001  1.434513294040000E-001  1.456193186150000E-001 
 1.478200727860000E-001  1.500540870980000E-001  1.523218642120000E-001  1.546239143880000E-001 
 1.569607555970000E-001  1.593329136390000E-001  1.617409222580000E-001  1.641853232670000E-001 
 1.666666666670000E-001  1.691855107690000E-001  1.717424223260000E-001  1.743379766510000E-001 
 1.769727577580000E-001  1.796473584810000E-001  1.823623806180000E-001  1.851184350590000E-001 
 1.879161419300000E-001  1.907561307250000E-001  1.936390404550000E-001  1.965655197850000E-001 
 1.995362271870000E-001  2.025518310820000E-001  2.056130099930000E-001  2.087204526990000E-001 
 2.118748583870000E-001  2.150769368120000E-001  2.183274084560000E-001  2.216270046870000E-001 
 2.249764679290000E-001  2.283765518260000E-001  2.318280214110000E-001  2.353316532780000E-001 
 2.388882357600000E-001  2.424985691030000E-001  2.461634656470000E-001  2.498837500090000E-001 
 2.536602592700000E-001  2.574938431590000E-001  2.613853642480000E-001  2.653356981480000E-001 
 2.693457336990000E-001  2.734163731760000E-001  2.775485324910000E-001  2.817431413970000E-001 
 2.860011436970000E-001  2.903234974620000E-001  2.947111752390000E-001  2.991651642730000E-001 
 3.036864667320000E-001  3.082760999260000E-001  3.129350965440000E-001  3.176645048790000E-001 
 3.224653890670000E-001  3.273388293280000E-001  3.322859222070000E-001  3.373077808200000E-001 
 3.424055351070000E-001  3.475803320840000E-001  3.528333361020000E-001  3.581657291090000E-001 
 3.635787109160000E-001  3.690734994670000E-001  3.746513311130000E-001  3.803134608880000E-001 
 3.860611627970000E-001  3.918957300960000E-001  3.978184755870000E-001  4.038307319140000E-001 
 4.099338518590000E-001  4.161292086510000E-001  4.224181962700000E-001  4.288022297650000E-001 
 4.352827455710000E-001  4.418612018300000E-001  4.485390787250000E-001  4.553178788040000E-001 
 4.621991273270000E-001  4.691843726040000E-001  4.762751863440000E-001  4.834731640100000E-001 
 4.907799251780000E-001  4.981971138990000E-001  5.057263990730000E-001  5.133694748199999E-001 
 5.211280608640000E-001  5.290039029210000E-001  5.369987730880000E-001  5.451144702439999E-001 
 5.533528204560000E-001  5.617156773870000E-001  5.702049227150000E-001  5.788224665560000E-001 
 5.875702478940000E-001  5.964502350170000E-001  6.054644259590000E-001  6.146148489510000E-001 
 6.239035628770000E-001  6.333326577370000E-001  6.429042551160000E-001  6.526205086650000E-001 
 6.624836045820000E-001  6.724957621050000E-001  6.826592340120000E-001  6.929763071260000E-001 
 7.034493028330000E-001  7.140805776000000E-001  7.248725235100000E-001  7.358275687960000E-001 
 7.469481783900001E-001  7.582368544740000E-001  7.696961370500000E-001  7.813286045040000E-001 
 7.931368741900000E-001  8.051236030180000E-001  8.172914880540000E-001  8.296432671230000E-001 
 8.421817194270000E-001  8.549096661709999E-001  8.678299711970000E-001  8.809455416270000E-001 
 8.942593285200000E-001  9.077743275350000E-001  9.214935796040000E-001  9.354201716160000E-001 
 9.495572371120000E-001  9.639079569930000E-001  9.784755602300000E-001  9.932633245970000E-001 
 1.008274577400000E+000  1.023512696240000E+000  1.038981109750000E+000  1.054683298400000E+000 
 1.070622795240000E+000  1.086803186720000E+000  1.103228113510000E+000  1.119901271270000E+000 
 1.136826411550000E+000  1.154007342560000E+000  1.171447930100000E+000  1.189152098360000E+000 
 1.207123830860000E+000  1.225367171320000E+000  1.243886224550000E+000  1.262685157440000E+000 
 1.281768199810000E+000  1.301139645440000E+000  1.320803852970000E+000  1.340765246950000E+000 
 1.361028318760000E+000  1.381597627690000E+000  1.402477801910000E+000  1.423673539550000E+000 
 1.445189609740000E+000  1.467030853700000E+000  1.489202185780000E+000  1.511708594640000E+000 
 1.534555144310000E+000  1.557746975370000E+000  1.581289306060000E+000  1.605187433520000E+000 
 1.629446734920000E+000  1.654072668710000E+000  1.679070775840000E+000  1.704446680970000E+000 
 1.730206093790000E+000  1.756354810280000E+000  1.782898714020000E+000  1.809843777490000E+000 
 1.837196063440000E+000  1.864961726260000E+000  1.893147013330000E+000  1.921758266470000E+000 
 1.950801923330000E+000  1.980284518850000E+000  2.010212686740000E+000  2.040593160970000E+000 
 2.071432777260000E+000  2.102738474670000E+000  2.134517297110000E+000  2.166776394950000E+000 
 2.199523026610000E+000  2.232764560230000E+000  2.266508475310000E+000  2.300762364340000E+000 
 2.335533934620000E+000  2.370831009890000E+000  2.406661532130000E+000  2.443033563380000E+000 
 2.479955287480000E+000  2.517435011980000E+000  2.555481169980000E+000  2.594102322030000E+000 
 2.633307158040000E+000  2.673104499280000E+000  2.713503300300000E+000  2.754512651010000E+000 
 2.796141778690000E+000  2.838400050070000E+000  2.881296973430000E+000  2.924842200760000E+000 
 2.969045529940000E+000  3.013916906880000E+000  3.059466427840000E+000  3.105704341650000E+000 
 3.152641052040000E+000  3.200287119970000E+000  3.248653266010000E+000  3.297750372730000E+000 
 3.347589487200000E+000  3.398181823420000E+000  3.449538764900000E+000  3.501671867150000E+000 
 3.554592860340000E+000  3.608313651920000E+000  3.662846329290000E+000  3.718203162550000E+000 
 3.774396607200000E+000  3.831439307010000E+000  3.889344096820000E+000  3.948124005470000E+000 
 4.007792258680000E+000  4.068362282050000E+000  4.129847704100000E+000  4.192262359300000E+000 
 4.255620291230000E+000  4.319935755670000E+000  4.385223223880000E+000  4.451497385810000E+000 
 4.518773153440000E+000  4.587065664090000E+000  4.656390283870000E+000  4.726762611110000E+000 
 4.798198479870000E+000  4.870713963540000E+000  4.944325378390000E+000  5.019049287320000E+000 
 5.094902503510000E+000  5.171902094250000E+000  5.250065384790000E+000  5.329409962190000E+000 
 5.409953679310000E+000  5.491714658830000E+000  5.574711297320000E+000  5.658962269370000E+000 
 5.744486531810000E+000  5.831303327950000E+000  5.919432191940000E+000  6.008892953140000E+000 
 6.099705740610000E+000  6.191890987610000E+000  6.285469436200000E+000  6.380462141930000E+000 
 6.476890478560000E+000  6.574776142870000E+000  6.674141159550000E+000  6.775007886150000E+000 
 6.877399018100000E+000  6.981337593850000E+000  7.086847000010000E+000  7.193950976640000E+000 
 7.302673622600000E+000  7.413039400920000E+000  7.525073144390000E+000  7.638800061060000E+000 
 7.754245739960000E+000  7.871436156880000E+000  7.990397680140000E+000  8.111157076580000E+000 
 8.233741517590000E+000  8.358178585170000E+000  8.484496278200000E+000  8.612723018680001E+000 
 8.742887658180001E+000  8.875019484290000E+000  9.009148227220001E+000  9.145304066510000E+000 
 9.283517637799999E+000  9.423820039720001E+000  9.566242840910000E+000  9.710818087090001E+000 
 9.857578308310000E+000  1.000655652620000E+001  1.015778626160000E+001  1.031130154170000E+001 
 1.046713690820000E+001  1.062532742460000E+001  1.078590868460000E+001  1.094891681950000E+001 
 1.111438850680000E+001  1.128236097850000E+001  1.145287202900000E+001  1.162596002400000E+001 
 1.180166390900000E+001  1.198002321830000E+001  1.216107808330000E+001  1.234486924210000E+001 
 1.253143804870000E+001  1.272082648160000E+001  1.291307715420000E+001  1.310823332360000E+001 
 1.330633890080000E+001  1.350743846050000E+001  1.371157725070000E+001  1.391880120370000E+001 
 1.412915694560000E+001  1.434269180750000E+001  1.455945383560000E+001  1.477949180220000E+001 
 1.500285521680000E+001  1.522959433710000E+001  1.545976018040000E+001  1.569340453490000E+001 
 1.593057997170000E+001  1.617133985620000E+001  1.641573836030000E+001  1.666383047490000E+001 
 1.691567202160000E+001  1.717131966590000E+001  1.743083092950000E+001  1.769426420370000E+001 
 1.796167876190000E+001  1.823313477360000E+001  1.850869331760000E+001  1.878841639570000E+001 
 1.907236694670000E+001  1.936060886070000E+001  1.965320699340000E+001  1.995022718060000E+001 
 2.025173625310000E+001  2.055780205170000E+001  2.086849344250000E+001  2.118388033230000E+001 
 2.150403368460000E+001  2.182902553510000E+001  2.215892900850000E+001  2.249381833450000E+001 
 2.283376886440000E+001  2.317885708870000E+001  2.352916065360000E+001  2.388475837890000E+001 
 2.424573027560000E+001  2.461215756390000E+001  2.498412269150000E+001  2.536170935210000E+001 
 2.574500250430000E+001  2.613408839070000E+001  2.652905455720000E+001  2.692998987290000E+001 
 2.733698455000000E+001  2.775013016390000E+001  2.816951967410000E+001  2.859524744520000E+001 
 2.902740926750000E+001  2.946610237940000E+001  2.991142548860000E+001  3.036347879480000E+001 
 3.082236401180000E+001  3.128818439070000E+001  3.176104474310000E+001  3.224105146460000E+001 
 3.272831255860000E+001  3.322293766110000E+001  3.372503806470000E+001  3.423472674410000E+001 
 3.475211838150000E+001  3.527732939210000E+001  3.581047795070000E+001  3.635168401790000E+001 
 3.690106936740000E+001  3.745875761310000E+001  3.802487423730000E+001  3.859954661870000E+001 
 3.918290406090000E+001  3.977507782180000E+001  4.037620114300000E+001  4.098640927980000E+001 
 4.160583953160000E+001  4.223463127280000E+001  4.287292598430000E+001  4.352086728500000E+001 
 4.417860096440000E+001  4.484627501540000E+001  4.552403966750000E+001  4.621204742050000E+001 
 4.691045307920000E+001  4.761941378780000E+001  4.833908906530000E+001  4.906964084180000E+001 
 4.981123349450000E+001  5.056403388490000E+001  5.132821139620000E+001  5.210393797170000E+001 
 5.289138815300000E+001  5.369073911970000E+001  5.450217072930000E+001  5.532586555730000E+001 
 5.616200893830000E+001  5.701078900840000E+001  5.787239674650000E+001  5.874702601800000E+001 
 5.963487361810000E+001  6.053613931650000E+001  6.145102590160000E+001  6.237973922670000E+001 
 6.332248825640000E+001  6.427948511300001E+001  6.525094512500000E+001  6.623708687490000E+001 
 6.723813224880000E+001  6.825430648610001E+001  6.928583823030000E+001  7.033295958050000E+001 
 7.139590614319999E+001  7.247491708610001E+001  7.357023519099999E+001  7.468210690920000E+001 
 7.581078241660001E+001  7.695651566980000E+001  7.811956446370000E+001  7.930019048920001E+001 
 8.049865939210000E+001  8.171524083300000E+001  8.295020854780000E+001  8.420384040950000E+001 
 8.547641849050000E+001  8.676822912620000E+001  8.807956297960000E+001  8.941071510620000E+001 
 9.076198502100000E+001  9.213367676530000E+001  9.352609897550001E+001  9.493956495259999E+001 
 9.637439273230000E+001  9.783090515700000E+001  9.930942994800000E+001
    </PP_R>
    <PP_RAB type="real" size="627" columns="4">
 1.244676709200000E-004  1.263487588730000E-004  1.282582758300000E-004  1.301966514400000E-004 
 1.321643218460000E-004  1.341617297820000E-004  1.361893246730000E-004  1.382475627370000E-004 
 1.403369070850000E-004  1.424578278300000E-004  1.446108021870000E-004  1.467963145850000E-004 
 1.490148567720000E-004  1.512669279310000E-004  1.535530347880000E-004  1.558736917240000E-004 
 1.582294208990000E-004  1.606207523610000E-004  1.630482241700000E-004  1.655123825180000E-004 
 1.680137818490000E-004  1.705529849910000E-004  1.731305632730000E-004  1.757470966630000E-004 
 1.784031738910000E-004  1.810993925860000E-004  1.838363594080000E-004  1.866146901860000E-004 
 1.894350100570000E-004  1.922979536050000E-004  1.952041650030000E-004  1.981542981620000E-004 
 2.011490168740000E-004  2.041889949630000E-004  2.072749164380000E-004  2.104074756430000E-004 
 2.135873774180000E-004  2.168153372540000E-004  2.200920814560000E-004  2.234183473040000E-004 
 2.267948832240000E-004  2.302224489480000E-004  2.337018156950000E-004  2.372337663370000E-004 
 2.408190955760000E-004  2.444586101280000E-004  2.481531288990000E-004  2.519034831710000E-004 
 2.557105167890000E-004  2.595750863520000E-004  2.634980614050000E-004  2.674803246330000E-004 
 2.715227720620000E-004  2.756263132610000E-004  2.797918715430000E-004  2.840203841770000E-004 
 2.883128025950000E-004  2.926700926100000E-004  2.970932346310000E-004  3.015832238830000E-004 
 3.061410706320000E-004  3.107678004140000E-004  3.154644542630000E-004  3.202320889440000E-004 
 3.250717771960000E-004  3.299846079700000E-004  3.349716866720000E-004  3.400341354170000E-004 
 3.451730932770000E-004  3.503897165400000E-004  3.556851789660000E-004  3.610606720590000E-004 
 3.665174053260000E-004  3.720566065550000E-004  3.776795220910000E-004  3.833874171120000E-004 
 3.891815759200000E-004  3.950633022240000E-004  4.010339194380000E-004  4.070947709750000E-004 
 4.132472205540000E-004  4.194926525000000E-004  4.258324720640000E-004  4.322681057290000E-004 
 4.388010015420000E-004  4.454326294320000E-004  4.521644815430000E-004  4.589980725690000E-004 
 4.659349400990000E-004  4.729766449550000E-004  4.801247715520000E-004  4.873809282480000E-004 
 4.947467477090000E-004  5.022238872760000E-004  5.098140293360000E-004  5.175188817030000E-004 
 5.253401780020000E-004  5.332796780570000E-004  5.413391682900000E-004  5.495204621190000E-004 
 5.578254003710000E-004  5.662558516910001E-004  5.748137129670000E-004  5.835009097530000E-004 
 5.923193967050000E-004  6.012711580210000E-004  6.103582078840000E-004  6.195825909180000E-004 
 6.289463826490000E-004  6.384516899700000E-004  6.481006516150000E-004  6.578954386400000E-004 
 6.678382549150000E-004  6.779313376140000E-004  6.881769577240000E-004  6.985774205540000E-004 
 7.091350662490001E-004  7.198522703270000E-004  7.307314442020000E-004  7.417750357350000E-004 
 7.529855297810000E-004  7.643654487470000E-004  7.759173531640000E-004  7.876438422590000E-004 
 7.995475545410000E-004  8.116311683960000E-004  8.238974026880000E-004  8.363490173720000E-004 
 8.489888141120000E-004  8.618196369180000E-004  8.748443727780000E-004  8.880659523120000E-004 
 9.014873504330000E-004  9.151115870100000E-004  9.289417275550000E-004  9.429808839080000E-004 
 9.572322149380000E-004  9.716989272540000E-004  9.863842759290000E-004  1.001291565230000E-003 
 1.016424149350000E-003  1.031785433200000E-003  1.047378873120000E-003  1.063207977710000E-003 
 1.079276308570000E-003  1.095587481160000E-003  1.112145165560000E-003  1.128953087310000E-003 
 1.146015028260000E-003  1.163334827440000E-003  1.180916381850000E-003  1.198763647440000E-003 
 1.216880639900000E-003  1.235271435640000E-003  1.253940172670000E-003  1.272891051520000E-003 
 1.292128336230000E-003  1.311656355270000E-003  1.331479502520000E-003  1.351602238270000E-003 
 1.372029090240000E-003  1.392764654530000E-003  1.413813596750000E-003  1.435180652990000E-003 
 1.456870630930000E-003  1.478888410920000E-003  1.501238947030000E-003  1.523927268240000E-003 
 1.546958479520000E-003  1.570337762970000E-003  1.594070379050000E-003  1.618161667700000E-003 
 1.642617049540000E-003  1.667442027150000E-003  1.692642186250000E-003  1.718223196980000E-003 
 1.744190815180000E-003  1.770550883670000E-003  1.797309333580000E-003  1.824472185670000E-003 
 1.852045551700000E-003  1.880035635800000E-003  1.908448735840000E-003  1.937291244900000E-003 
 1.966569652670000E-003  1.996290546900000E-003  2.026460614930000E-003  2.057086645140000E-003 
 2.088175528530000E-003  2.119734260220000E-003  2.151769941060000E-003  2.184289779220000E-003 
 2.217301091790000E-003  2.250811306470000E-003  2.284827963180000E-003  2.319358715820000E-003 
 2.354411333960000E-003  2.389993704580000E-003  2.426113833870000E-003  2.462779849010000E-003 
 2.500000000000000E-003  2.537782661540000E-003  2.576136334880000E-003  2.615069649770000E-003 
 2.654591366360000E-003  2.694710377210000E-003  2.735435709260000E-003  2.776776525890000E-003 
 2.818742128950000E-003  2.861341960880000E-003  2.904585606820000E-003  2.948482796780000E-003 
 2.993043407800000E-003  3.038277466220000E-003  3.084195149890000E-003  3.130806790480000E-003 
 3.178122875800000E-003  3.226154052180000E-003  3.274911126830000E-003  3.324405070300000E-003 
 3.374647018940000E-003  3.425648277390000E-003  3.477420321160000E-003  3.529974799170000E-003 
 3.583323536400000E-003  3.637478536550000E-003  3.692451984710000E-003  3.748256250140000E-003 
 3.804903889050000E-003  3.862407647380000E-003  3.920780463730000E-003  3.980035472220000E-003 
 4.040186005480000E-003  4.101245597640000E-003  4.163227987360000E-003  4.226147120950000E-003 
 4.290017155460000E-003  4.354852461940000E-003  4.420667628580000E-003  4.487477464100000E-003 
 4.555297000980000E-003  4.624141498900000E-003  4.694026448160000E-003  4.764967573180000E-003 
 4.836980836010000E-003  4.910082439920000E-003  4.984288833110000E-003  5.059616712310000E-003 
 5.136083026610000E-003  5.213704981260000E-003  5.292500041530000E-003  5.372485936640000E-003 
 5.453680663750000E-003  5.536102492010000E-003  5.619769966690000E-003  5.704701913320000E-003 
 5.790917441950000E-003  5.878435951440000E-003  5.967277133810000E-003  6.057460978710000E-003 
 6.149007777890000E-003  6.241938129760000E-003  6.336272944040000E-003  6.432033446470000E-003 
 6.529241183560000E-003  6.627918027460000E-003  6.728086180870000E-003  6.829768182060000E-003 
 6.932986909910000E-003  7.037765589060000E-003  7.144127795160000E-003  7.252097460150000E-003 
 7.361698877660000E-003  7.472956708480000E-003  7.585895986090000E-003  7.700542122300000E-003 
 7.816920912970000E-003  7.935058543819999E-003  8.054981596320000E-003  8.176717053660000E-003 
 8.300292306840000E-003  8.425735160800000E-003  8.553073840720000E-003  8.682336998340000E-003 
 8.813553718410000E-003  8.946753525250000E-003  9.081966389380001E-003  9.219222734259999E-003 
 9.358553443150000E-003  9.499989866049999E-003  9.643563826740000E-003  9.789307629979999E-003 
 9.937254068739999E-003  1.008743643160000E-002  1.023988851020000E-002  1.039464460690000E-002 
 1.055173954250000E-002  1.071120866400000E-002  1.087308785270000E-002  1.103741353190000E-002 
 1.120422267580000E-002  1.137355281710000E-002  1.154544205570000E-002  1.171992906760000E-002 
 1.189705311280000E-002  1.207685404530000E-002  1.225937232080000E-002  1.244464900680000E-002 
 1.263272579140000E-002  1.282364499260000E-002  1.301744956790000E-002  1.321418312440000E-002 
 1.341388992780000E-002  1.361661491300000E-002  1.382240369410000E-002  1.403130257420000E-002 
 1.424335855670000E-002  1.445861935490000E-002  1.467713340350000E-002  1.489894986900000E-002 
 1.512411866100000E-002  1.535269044360000E-002  1.558471664630000E-002  1.582024947600000E-002 
 1.605934192860000E-002  1.630204780080000E-002  1.654842170260000E-002  1.679851906910000E-002 
 1.705239617320000E-002  1.731011013840000E-002  1.757171895150000E-002  1.783728147540000E-002 
 1.810685746290000E-002  1.838050756970000E-002  1.865829336830000E-002  1.894027736160000E-002 
 1.922652299720000E-002  1.951709468160000E-002  1.981205779460000E-002  2.011147870420000E-002 
 2.041542478140000E-002  2.072396441530000E-002  2.103716702860000E-002  2.135510309320000E-002 
 2.167784414620000E-002  2.200546280550000E-002  2.233803278670000E-002  2.267562891960000E-002 
 2.301832716470000E-002  2.336620463050000E-002  2.371933959090000E-002  2.407781150280000E-002 
 2.444170102380000E-002  2.481109003070000E-002  2.518606163750000E-002  2.556670021450000E-002 
 2.595309140680000E-002  2.634532215420000E-002  2.674348071030000E-002  2.714765666230000E-002 
 2.755794095160000E-002  2.797442589390000E-002  2.839720520000000E-002  2.882637399710000E-002 
 2.926202885000000E-002  2.970426778270000E-002  3.015319030110000E-002  3.060889741450000E-002 
 3.107149165890000E-002  3.154107712010000E-002  3.201775945670000E-002  3.250164592420000E-002 
 3.299284539910000E-002  3.349146840350000E-002  3.399762712960000E-002  3.451143546520000E-002 
 3.503300901930000E-002  3.556246514830000E-002  3.609992298200000E-002  3.664550345070000E-002 
 3.719932931220000E-002  3.776152517970000E-002  3.833221754980000E-002  3.891153483050000E-002 
 3.949960737070000E-002  4.009656748910000E-002  4.070254950450000E-002  4.131768976520000E-002 
 4.194212668030000E-002  4.257600075100000E-002  4.321945460140000E-002  4.387263301150000E-002 
 4.453568294900000E-002  4.520875360310000E-002  4.589199641750000E-002  4.658556512470000E-002 
 4.728961578060000E-002  4.800430679960000E-002  4.872979899010000E-002  4.946625559090000E-002 
 5.021384230800000E-002  5.097272735140000E-002  5.174308147350000E-002  5.252507800720000E-002 
 5.331889290510000E-002  5.412470477880000E-002  5.494269493940000E-002  5.577304743820000E-002 
 5.661594910790000E-002  5.747158960510000E-002  5.834016145240000E-002  5.922186008210000E-002 
 6.011688388020000E-002  6.102543423070000E-002  6.194771556150000E-002  6.288393538950000E-002 
 6.383430436840000E-002  6.479903633500000E-002  6.577834835820000E-002  6.677246078720001E-002 
 6.778159730159999E-002  6.880598496140000E-002  6.984585425810000E-002  7.090143916659999E-002 
 7.197297719810000E-002  7.306070945310000E-002  7.416488067590001E-002  7.528573930980000E-002 
 7.642353755259999E-002  7.757853141380000E-002  7.875098077190000E-002  7.994114943279999E-002 
 8.114930518970000E-002  8.237571988250000E-002  8.362066945990000E-002  8.488443404060000E-002 
 8.616729797710000E-002  8.746954991920000E-002  8.879148287910001E-002  9.013339429710000E-002 
 9.149558610920000E-002  9.287836481410000E-002  9.428204154300000E-002  9.570693212890000E-002 
 9.715335717830000E-002  9.862164214300000E-002  1.001121173930000E-001  1.016251182920000E-001 
 1.031609852720000E-001  1.047200639080000E-001  1.063027050000000E-001  1.079092646500000E-001 
 1.095401043390000E-001  1.111955910140000E-001  1.128760971660000E-001  1.145820009160000E-001 
 1.163136860990000E-001  1.180715423530000E-001  1.198559652020000E-001  1.216673561490000E-001 
 1.235061227640000E-001  1.253726787780000E-001  1.272674441730000E-001  1.291908452800000E-001 
 1.311433148730000E-001  1.331252922640000E-001  1.351372234080000E-001  1.371795609980000E-001 
 1.392527645670000E-001  1.413573005960000E-001  1.434936426140000E-001  1.456622713060000E-001 
 1.478636746250000E-001  1.500983478940000E-001  1.523667939240000E-001  1.546695231260000E-001 
 1.570070536230000E-001  1.593799113700000E-001  1.617886302690000E-001  1.642337522920000E-001 
 1.667158276020000E-001  1.692354146770000E-001  1.717930804350000E-001  1.743894003600000E-001 
 1.770249586360000E-001  1.797003482740000E-001  1.824161712490000E-001  1.851730386320000E-001 
 1.879715707300000E-001  1.908123972240000E-001  1.936961573130000E-001  1.966234998540000E-001 
 1.995950835130000E-001  2.026115769070000E-001  2.056736587610000E-001  2.087820180550000E-001 
 2.119373541850000E-001  2.151403771130000E-001  2.183918075340000E-001  2.216923770320000E-001 
 2.250428282510000E-001  2.284439150560000E-001  2.318964027050000E-001  2.354010680240000E-001 
 2.389586995750000E-001  2.425700978420000E-001  2.462360754050000E-001  2.499574571230000E-001 
 2.537350803240000E-001  2.575697949880000E-001  2.614624639430000E-001  2.654139630550000E-001 
 2.694251814290000E-001  2.734970216050000E-001  2.776303997640000E-001  2.818262459350000E-001 
 2.860855042000000E-001  2.904091329110000E-001  2.947981049020000E-001  2.992534077100000E-001 
 3.037760437970000E-001  3.083670307750000E-001  3.130274016370000E-001  3.177582049840000E-001 
 3.225605052680000E-001  3.274353830270000E-001  3.323839351280000E-001  3.374072750170000E-001 