<UPF version="2.0.1">
  <PP_INFO>
    Generated by new atomic code, or converted to UPF format
    Author: 
    Generation date: 
    Pseudopotential type: US
    Element: H
    Functional:  SLA  PW   PBE  PBE

    Suggested minimum cutoff for wavefunctions:   0. Ry
    Suggested minimum cutoff for charge density:   0. Ry
    The Pseudo was generated with a Non-Relativistic Calculation
    L component and cutoff radius for Local Potential:  0   0.0000

    Valence configuration: 
    nl pn  l   occ       Rcut    Rcut US       E pseu
    1S  0  0  1.00      1.100      1.200     0.000000

    Generation configuration: not available.
  </PP_INFO>
  <!--                               -->
  <!-- END OF HUMAN READABLE SECTION -->
  <!--                               -->
  <PP_HEADER generated="Generated by new atomic code, or converted to UPF format"
             author=""
             date=""
             comment=""
             element="H "
             pseudo_type="US"
             relativistic="no"
             is_ultrasoft="T"
             is_paw="F"
             is_coulomb="F"
             has_so="F"
             has_wfc="F"
             has_gipaw="F"
             paw_as_gipaw="F"
             core_correction="F"
             functional=" SLA  PW   PBE  PBE"
             z_valence="1.000000000000000E+000"
             total_psenergy="-6.191664929800000E-001"
             wfc_cutoff="0.000000000000000E+000"
             rho_cutoff="0.000000000000000E+000"
             l_max="1"
             l_max_rho="0"
             l_local="0"
             mesh_size="1061"
             number_of_wfc="1"
             number_of_proj="2"/>
  <PP_MESH dx="9.999999999998293E-003" mesh="1061" xmin="-5.999999999998531E+000" rmax="9.948431564190000E+001"
zmesh="1.000000000000000E+000">
    <PP_R type="real" size="1061" columns="4">
 2.478752176670000E-003  2.503664050200000E-003  2.528826292230000E-003  2.554241418990000E-003 
 2.579911972030000E-003  2.605840518410000E-003  2.632029651010000E-003  2.658481988780000E-003 
 2.685200176950000E-003  2.712186887390000E-003  2.739444818770000E-003  2.766976696910000E-003 
 2.794785275040000E-003  2.822873334020000E-003  2.851243682680000E-003  2.879899158090000E-003 
 2.908842625810000E-003  2.938076980220000E-003  2.967605144780000E-003  2.997430072330000E-003 
 3.027554745380000E-003  3.057982176420000E-003  3.088715408240000E-003  3.119757514160000E-003 
 3.151111598440000E-003  3.182780796510000E-003  3.214768275310000E-003  3.247077233610000E-003 
 3.279710902340000E-003  3.312672544900000E-003  3.345965457470000E-003  3.379592969380000E-003 
 3.413558443400000E-003  3.447865276100000E-003  3.482516898210000E-003  3.517516774910000E-003 
 3.552868406220000E-003  3.588575327330000E-003  3.624641108970000E-003  3.661069357730000E-003 
 3.697863716480000E-003  3.735027864690000E-003  3.772565518790000E-003  3.810480432590000E-003 
 3.848776397610000E-003  3.887457243480000E-003  3.926526838310000E-003  3.965989089090000E-003 
 4.005847942090000E-003  4.046107383220000E-003  4.086771438460000E-003  4.127844174260000E-003 
 4.169329697900000E-003  4.211232158000000E-003  4.253555744820000E-003  4.296304690750000E-003 
 4.339483270740000E-003  4.383095802670000E-003  4.427146647830000E-003  4.471640211350000E-003 
 4.516580942610000E-003  4.561973335740000E-003  4.607821929990000E-003  4.654131310280000E-003 
 4.700906107580000E-003  4.748150999410000E-003  4.795870710300000E-003  4.844070012250000E-003 
 4.892753725240000E-003  4.941926717680000E-003  4.991593906910000E-003  5.041760259690000E-003 
 5.092430792700000E-003  5.143610573030000E-003  5.195304718710000E-003  5.247518399180000E-003 
 5.300256835870000E-003  5.353525302660000E-003  5.407329126440000E-003  5.461673687640000E-003 
 5.516564420760000E-003  5.572006814920000E-003  5.628006414400000E-003  5.684568819220000E-003 
 5.741699685650000E-003  5.799404726840000E-003  5.857689713340000E-003  5.916560473680000E-003 
 5.976022895010000E-003  6.036082923600000E-003  6.096746565520000E-003  6.158019887170000E-003 
 6.219909015940000E-003  6.282420140800000E-003  6.345559512910000E-003  6.409333446260000E-003 
 6.473748318290000E-003  6.538810570550000E-003  6.604526709310000E-003  6.670903306260000E-003 
 6.737946999090000E-003  6.805664492230000E-003  6.874062557500000E-003  6.943148034750000E-003 
 7.012927832590000E-003  7.083408929050000E-003  7.154598372310000E-003  7.226503281380000E-003 
 7.299130846790000E-003  7.372488331370000E-003  7.446583070920000E-003  7.521422474990000E-003 
 7.597014027580000E-003  7.673365287900000E-003  7.750483891140000E-003  7.828377549229999E-003 
 7.907054051590000E-003  7.986521265960000E-003  8.066787139099999E-003  8.147859697679999E-003 
 8.229747049020001E-003  8.312457381920000E-003  8.395998967490000E-003  8.480380159950000E-003 
 8.565609397500000E-003  8.651695203119999E-003  8.738646185470000E-003  8.826471039729999E-003 
 8.915178548439999E-003  9.004777582439999E-003  9.095277101700000E-003  9.186686156240000E-003 
 9.279013887059999E-003  9.372269527010001E-003  9.466462401710000E-003  9.561601930540000E-003 
 9.657697627540001E-003  9.754759102339999E-003  9.852796061190000E-003  9.951818307850000E-003 
 1.005183574460000E-002  1.015285837340000E-002  1.025489629640000E-002  1.035795971760000E-002 
 1.046205894340000E-002  1.056720438390000E-002  1.067340655350000E-002  1.078067607270000E-002 
 1.088902366860000E-002  1.099846017580000E-002  1.110899653820000E-002  1.122064380960000E-002 
 1.133341315470000E-002  1.144731585050000E-002  1.156236328750000E-002  1.167856697040000E-002 
 1.179593851980000E-002  1.191448967280000E-002  1.203423228470000E-002  1.215517832990000E-002 
 1.227733990310000E-002  1.240072922040000E-002  1.252535862110000E-002  1.265124056800000E-002 
 1.277838764950000E-002  1.290681258050000E-002  1.303652820340000E-002  1.316754749010000E-002 
 1.329988354240000E-002  1.343354959420000E-002  1.356855901220000E-002  1.370492529740000E-002 
 1.384266208650000E-002  1.398178315330000E-002  1.412230241020000E-002  1.426423390900000E-002 
 1.440759184310000E-002  1.455239054840000E-002  1.469864450490000E-002  1.484636833810000E-002 
 1.499557682050000E-002  1.514628487300000E-002  1.529850756670000E-002  1.545226012390000E-002 
 1.560755792000000E-002  1.576441648490000E-002  1.592285150450000E-002  1.608287882260000E-002 
 1.624451444190000E-002  1.640777452630000E-002  1.657267540180000E-002  1.673923355860000E-002 
 1.690746565270000E-002  1.707738850750000E-002  1.724901911530000E-002  1.742237463950000E-002 
 1.759747241560000E-002  1.777432995370000E-002  1.795296493950000E-002  1.813339523680000E-002 
 1.831563888870000E-002  1.849971411980000E-002  1.868563933770000E-002  1.887343313520000E-002 
 1.906311429160000E-002  1.925470177540000E-002  1.944821474540000E-002  1.964367255310000E-002 
 1.984109474440000E-002  2.004050106170000E-002  2.024191144580000E-002  2.044534603790000E-002 
 2.065082518170000E-002  2.085836942520000E-002  2.106799952300000E-002  2.127973643840000E-002 
 2.149360134510000E-002  2.170961562980000E-002  2.192780089430000E-002  2.214817895700000E-002 
 2.237077185620000E-002  2.259560185110000E-002  2.282269142510000E-002  2.305206328720000E-002 
 2.328374037490000E-002  2.351774585600000E-002  2.375410313130000E-002  2.399283583670000E-002 
 2.423396784570000E-002  2.447752327170000E-002  2.472352647030000E-002  2.497200204230000E-002 
 2.522297483520000E-002  2.547646994670000E-002  2.573251272640000E-002  2.599112877880000E-002 
 2.625234396570000E-002  2.651618440890000E-002  2.678267649260000E-002  2.705184686640000E-002 
 2.732372244730000E-002  2.759833042320000E-002  2.787569825520000E-002  2.815585368030000E-002 
 2.843882471420000E-002  2.872463965420000E-002  2.901332708220000E-002  2.930491586700000E-002 
 2.959943516790000E-002  2.989691443690000E-002  3.019738342230000E-002  3.050087217120000E-002 
 3.080741103280000E-002  3.111703066110000E-002  3.142976201840000E-002  3.174563637810000E-002 
 3.206468532790000E-002  3.238694077290000E-002  3.271243493900000E-002  3.304120037590000E-002 
 3.337326996030000E-002  3.370867689960000E-002  3.404745473460000E-002  3.438963734350000E-002 
 3.473525894470000E-002  3.508435410080000E-002  3.543695772160000E-002  3.579310506770000E-002 
 3.615283175400000E-002  3.651617375370000E-002  3.688316740120000E-002  3.725384939620000E-002 
 3.762825680720000E-002  3.800642707520000E-002  3.838839801760000E-002  3.877420783170000E-002 
 3.916389509900000E-002  3.955749878840000E-002  3.995505826070000E-002  4.035661327200000E-002 
 4.076220397840000E-002  4.117187093910000E-002  4.158565512120000E-002  4.200359790340000E-002 
 4.242574108050000E-002  4.285212686700000E-002  4.328279790200000E-002  4.371779725280000E-002 
 4.415716841970000E-002  4.460095534030000E-002  4.504920239360000E-002  4.550195440460000E-002 
 4.595925664900000E-002  4.642115485740000E-002  4.688769522000000E-002  4.735892439110000E-002 
 4.783488949420000E-002  4.831563812610000E-002  4.880121836200000E-002  4.929167876050000E-002 
 4.978706836790000E-002  5.028743672360000E-002  5.079283386490000E-002  5.130331033190000E-002 
 5.181891717270000E-002  5.233970594840000E-002  5.286572873840000E-002  5.339703814520000E-002 
 5.393368730040000E-002  5.447572986920000E-002  5.502322005640000E-002  5.557621261150000E-002 
 5.613476283410000E-002  5.669892657980000E-002  5.726876026550000E-002  5.784432087480000E-002 
 5.842566596450000E-002  5.901285366940000E-002  5.960594270890000E-002  6.020499239240000E-002 
 6.081006262520000E-002  6.142121391500000E-002  6.203850737740000E-002  6.266200474220000E-002 
 6.329176835960000E-002  6.392786120670001E-002  6.457034689320000E-002  6.521928966810001E-002 
 6.587475442640001E-002  6.653680671499999E-002  6.720551273970000E-002  6.788093937179999E-002 
 6.856315415430000E-002  6.925222530930000E-002  6.994822174470000E-002  7.065121306039999E-002 
 7.136126955640000E-002  7.207846223880000E-002  7.280286282740001E-002  7.353454376309999E-002 
 7.427357821430000E-002  7.502004008530000E-002  7.577400402280000E-002  7.653554542389999E-002 
 7.730474044330000E-002  7.808166600120001E-002  7.886639979070000E-002  7.965902028590000E-002 
 8.045960674950001E-002  8.126823924090000E-002  8.208499862389999E-002  8.290996657520000E-002 
 8.374322559220000E-002  8.458485900160000E-002  8.543495096730000E-002  8.629358649940000E-002 
 8.716085146200001E-002  8.803683258240000E-002  8.892161745940000E-002  8.981529457220000E-002 
 9.071795328939999E-002  9.162968387750001E-002  9.255057751030001E-002  9.348072627810000E-002 
 9.442022319630000E-002  9.536916221550000E-002  9.632763823050000E-002  9.729574708950001E-002 
 9.827358560440000E-002  9.926125155960000E-002  1.002588437230000E-001  1.012664618540000E-001 
 1.022842067160000E-001  1.033121800830000E-001  1.043504847550000E-001  1.053992245620000E-001 
 1.064585043790000E-001  1.075284301360000E-001  1.086091088250000E-001  1.097006485160000E-001 
 1.108031583620000E-001  1.119167486170000E-001  1.130415306400000E-001  1.141776169110000E-001 
 1.153251210380000E-001  1.164841577730000E-001  1.176548430220000E-001  1.188372938520000E-001 
 1.200316285110000E-001  1.212379664330000E-001  1.224564282530000E-001  1.236871358170000E-001 
 1.249302121990000E-001  1.261857817050000E-001  1.274539698950000E-001  1.287349035880000E-001 
 1.300287108780000E-001  1.313355211480000E-001  1.326554650800000E-001  1.339886746690000E-001 
 1.353352832370000E-001  1.366954254460000E-001  1.380692373110000E-001  1.394568562150000E-001 
 1.408584209210000E-001  1.422740715870000E-001  1.437039497780000E-001  1.451481984840000E-001 
 1.466069621300000E-001  1.480803865950000E-001  1.495686192230000E-001  1.510718088360000E-001 
 1.525901057570000E-001  1.541236618150000E-001  1.556726303680000E-001  1.572371663140000E-001 
 1.588174261070000E-001  1.604135677750000E-001  1.620257509340000E-001  1.636541368030000E-001 
 1.652988882220000E-001  1.669601696670000E-001  1.686381472690000E-001  1.703329888250000E-001 
 1.720448638230000E-001  1.737739434500000E-001  1.755204006170000E-001  1.772844099700000E-001 
 1.790661479110000E-001  1.808657926170000E-001  1.826835240530000E-001  1.845195239930000E-001 
 1.863739760390000E-001  1.882470656390000E-001  1.901389801020000E-001  1.920499086210000E-001 
 1.939800422910000E-001  1.959295741270000E-001  1.978986990840000E-001  1.998876140750000E-001 
 2.018965179950000E-001  2.039256117340000E-001  2.059750982050000E-001  2.080451823570000E-001 
 2.101360712010000E-001  2.122479738270000E-001  2.143811014270000E-001  2.165356673160000E-001 
 2.187118869520000E-001  2.209099779590000E-001  2.231301601480000E-001  2.253726555390000E-001 
 2.276376883840000E-001  2.299254851870000E-001  2.322362747300000E-001  2.345702880940000E-001 
 2.369277586820000E-001  2.393089222440000E-001  2.417140168970000E-001  2.441432831530000E-001 
 2.465969639420000E-001  2.490753046320000E-001  2.515785530600000E-001  2.541069595530000E-001 
 2.566607769540000E-001  2.592402606460000E-001  2.618456685800000E-001  2.644772613000000E-001 
 2.671353019660000E-001  2.698200563850000E-001  2.725317930340000E-001  2.752707830900000E-001 
 2.780373004530000E-001  2.808316217780000E-001  2.836540265000000E-001  2.865047968600000E-001 
 2.893842179390000E-001  2.922925776810000E-001  2.952301669240000E-001  2.981972794300000E-001 
 3.011942119120000E-001  3.042212640670000E-001  3.072787386010000E-001  3.103669412650000E-001 
 3.134861808830000E-001  3.166367693790000E-001  3.198190218160000E-001  3.230332564220000E-001 
 3.262797946230000E-001  3.295589610750000E-001  3.328710836980000E-001  3.362164937070000E-001 
 3.395955256450000E-001  3.430085174190000E-001  3.464558103300000E-001  3.499377491110000E-001 
 3.534546819590000E-001  3.570069605690000E-001  3.605949401730000E-001  3.642189795720000E-001 
 3.678794411710000E-001  3.715766910220000E-001  3.753110988510000E-001  3.790830381030000E-001 
 3.828928859750000E-001  3.867410234550000E-001  3.906278353590000E-001  3.945537103720000E-001 
 3.985190410850000E-001  4.025242240340000E-001  4.065696597410000E-001  4.106557527520000E-001 
 4.147829116820000E-001  4.189515492480000E-001  4.231620823180000E-001  4.274149319490000E-001 
 4.317105234290000E-001  4.360492863220000E-001  4.404316545060000E-001  4.448580662230000E-001 
 4.493289641170000E-001  4.538447952820000E-001  4.584060113050000E-001  4.630130683110000E-001 
 4.676664270100000E-001  4.723665527410000E-001  4.771139155210000E-001  4.819089900900000E-001 
 4.867522559600000E-001  4.916441974610000E-001  4.965853037910000E-001  5.015760690660001E-001 
 5.066169923660000E-001  5.117085777870000E-001  5.168513344920000E-001  5.220457767609999E-001 
 5.272924240430000E-001  5.325918010070000E-001  5.379444375950000E-001  5.433508690740000E-001 
 5.488116360940000E-001  5.543272847350000E-001  5.598983665650000E-001  5.655254387000000E-001 
 5.712090638490001E-001  5.769498103800000E-001  5.827482523740000E-001  5.886049696780000E-001 
 5.945205479700000E-001  6.004955788120000E-001  6.065306597130000E-001  6.126263941840000E-001 
 6.187833918059999E-001  6.250022682830000E-001  6.312836455070000E-001  6.376281516220000E-001 
 6.440364210830000E-001  6.505090947230000E-001  6.570468198150000E-001  6.636502501360000E-001 
 6.703200460360000E-001  6.770568744980000E-001  6.838614092120000E-001  6.907343306370000E-001 
 6.976763260710001E-001  7.046880897190000E-001  7.117703227630000E-001  7.189237334320000E-001 
 7.261490370740000E-001  7.334469562240000E-001  7.408182206820000E-001  7.482635675790000E-001 
 7.557837414560000E-001  7.633794943370000E-001  7.710515858040000E-001  7.788007830710000E-001 
 7.866278610670000E-001  7.945336025030000E-001  8.025187979620000E-001  8.105842459700000E-001 
 8.187307530780000E-001  8.269591339430000E-001  8.352702114110000E-001  8.436648165960000E-001 
 8.521437889660000E-001  8.607079764250000E-001  8.693582353990000E-001  8.780954309210000E-001 
 8.869204367170000E-001  8.958341352970000E-001  9.048374180360000E-001  9.139311852710000E-001 
 9.231163463870000E-001  9.323938199060000E-001  9.417645335840000E-001  9.512294245010000E-001 
 9.607894391520000E-001  9.704455335490000E-001  9.801986733069999E-001  9.900498337490000E-001 
 1.000000000000000E+000  1.010050167080000E+000  1.020201340030000E+000  1.030454533950000E+000 
 1.040810774190000E+000  1.051271096380000E+000  1.061836546550000E+000  1.072508181250000E+000 
 1.083287067670000E+000  1.094174283710000E+000  1.105170918080000E+000  1.116278070460000E+000 
 1.127496851580000E+000  1.138828383320000E+000  1.150273798860000E+000  1.161834242730000E+000 
 1.173510870990000E+000  1.185304851320000E+000  1.197217363120000E+000  1.209249597660000E+000 
 1.221402758160000E+000  1.233678059960000E+000  1.246076730590000E+000  1.258600009930000E+000 
 1.271249150320000E+000  1.284025416690000E+000  1.296930086670000E+000  1.309964450730000E+000 
 1.323129812340000E+000  1.336427488030000E+000  1.349858807580000E+000  1.363425114130000E+000 
 1.377127764340000E+000  1.390968128460000E+000  1.404947590560000E+000  1.419067548590000E+000 
 1.433329414560000E+000  1.447734614660000E+000  1.462284589430000E+000  1.476980793880000E+000 
 1.491824697640000E+000  1.506817785110000E+000  1.521961555620000E+000  1.537257523550000E+000 
 1.552707218510000E+000  1.568312185490000E+000  1.584073984990000E+000  1.599994193220000E+000 
 1.616074402190000E+000  1.632316219960000E+000  1.648721270700000E+000  1.665291194950000E+000 
 1.682027649700000E+000  1.698932308620000E+000  1.716006862180000E+000  1.733253017870000E+000 
 1.750672500300000E+000  1.768267051430000E+000  1.786038430750000E+000  1.803988415400000E+000 
 1.822118800390000E+000  1.840431398780000E+000  1.858928041850000E+000  1.877610579260000E+000 
 1.896480879300000E+000  1.915540829010000E+000  1.934792334400000E+000  1.954237320640000E+000 
 1.973877732230000E+000  1.993715533240000E+000  2.013752707470000E+000  2.033991258650000E+000 
 2.054433210640000E+000  2.075080607670000E+000  2.095935514490000E+000  2.117000016610000E+000 
 2.138276220500000E+000  2.159766253780000E+000  2.181472265500000E+000  2.203396426260000E+000 
 2.225540928490000E+000  2.247907986680000E+000  2.270499837530000E+000  2.293318740260000E+000 
 2.316366976780000E+000  2.339646851930000E+000  2.363160693710000E+000  2.386910853520000E+000 
 2.410899706420000E+000  2.435129651290000E+000  2.459603111160000E+000  2.484322533380000E+000 
 2.509290389940000E+000  2.534509177620000E+000  2.559981418330000E+000  2.585709659320000E+000 
 2.611696473420000E+000  2.637944459350000E+000  2.664456241930000E+000  2.691234472350000E+000 
 2.718281828460000E+000  2.745601015020000E+000  2.773194763960000E+000  2.801065834700000E+000 
 2.829217014350000E+000  2.857651118060000E+000  2.886370989270000E+000  2.915379499980000E+000 
 2.944679551070000E+000  2.974274072560000E+000  3.004166023950000E+000  3.034358394440000E+000 
 3.064854203290000E+000  3.095656500120000E+000  3.126768365190000E+000  3.158192909690000E+000 
 3.189933276120000E+000  3.221992638530000E+000  3.254374202890000E+000  3.287081207380000E+000 
 3.320116922740000E+000  3.353484652550000E+000  3.387187733620000E+000  3.421229536290000E+000 
 3.455613464760000E+000  3.490342957460000E+000  3.525421487370000E+000  3.560852562360000E+000 
 3.596639725570000E+000  3.632786555750000E+000  3.669296667620000E+000  3.706173712210000E+000 
 3.743421377260000E+000  3.781043387570000E+000  3.819043505370000E+000  3.857425530700000E+000 
 3.896193301800000E+000  3.935350695470000E+000  3.974901627490000E+000  4.014850052990000E+000 
 4.055199966840000E+000  4.095955404070000E+000  4.137120440250000E+000  4.178699191920000E+000 
 4.220695817000000E+000  4.263114515170000E+000  4.305959528350000E+000  4.349235141060000E+000 
 4.392945680920000E+000  4.437095519000000E+000  4.481689070340000E+000  4.526730794310000E+000 
 4.572225195140000E+000  4.618176822300000E+000  4.664590270990000E+000  4.711470182590000E+000 
 4.758821245140000E+000  4.806648193780000E+000  4.854955811240000E+000  4.903748928330000E+000 
 4.953032424400000E+000  5.002811227830000E+000  5.053090316560000E+000  5.103874718540000E+000 
 5.155169512230000E+000  5.206979827180000E+000  5.259310844450000E+000  5.312167797180000E+000 
 5.365555971120000E+000  5.419480705130000E+000  5.473947391730000E+000  5.528961477620000E+000 
 5.584528464280000E+000  5.640653908430000E+000  5.697343422670000E+000  5.754602676010000E+000 
 5.812437394400000E+000  5.870853361380000E+000  5.929856418590000E+000  5.989452466380000E+000 
 6.049647464410000E+000  6.110447432230000E+000  6.171858449880000E+000  6.233886658520000E+000 
 6.296538261030000E+000  6.359819522600000E+000  6.423736771430000E+000  6.488296399290000E+000 
 6.553504862190000E+000  6.619368681040000E+000  6.685894442280000E+000  6.753088798530000E+000 
 6.820958469290000E+000  6.889510241580000E+000  6.958750970640000E+000  7.028687580590000E+000 
 7.099327065160000E+000  7.170676488350000E+000  7.242742985160000E+000  7.315533762310000E+000 
 7.389056098930000E+000  7.463317347320000E+000  7.538324933660000E+000  7.614086358780000E+000 
 7.690609198880000E+000  7.767901106310000E+000  7.845969810320000E+000  7.924823117850000E+000 
 8.004468914300000E+000  8.084915164310001E+000  8.166169912570000E+000  8.248241284630000E+000 
 8.331137487690000E+000  8.414866811440000E+000  8.499437628890000E+000  8.584858397180000E+000 
 8.671137658459999E+000  8.758284040740000E+000  8.846306258720000E+000  8.935213114700000E+000 
 9.025013499430001E+000  9.115716393040000E+000  9.207330865879999E+000  9.299866079479999E+000 
 9.393331287440001E+000  9.487735836360001E+000  9.583089166760001E+000  9.679400814070000E+000 
 9.776680409530000E+000  9.874937681170000E+000  9.974182454810000E+000  1.007442465500000E+001 
 1.017567430610000E+001  1.027794153300000E+001  1.038123656270000E+001  1.048556972470000E+001 
 1.059095145240000E+001  1.069739228410000E+001  1.080490286390000E+001  1.091349394300000E+001 
 1.102317638060000E+001  1.113396114510000E+001  1.124585931490000E+001  1.135888208000000E+001 
 1.147304074280000E+001  1.158834671920000E+001  1.170481154000000E+001  1.182244685160000E+001 
 1.194126441780000E+001  1.206127612040000E+001  1.218249396070000E+001  1.230493006050000E+001 
 1.242859666360000E+001  1.255350613670000E+001  1.267967097080000E+001  1.280710378270000E+001 
 1.293581731550000E+001  1.306582444090000E+001  1.319713815970000E+001  1.332977160320000E+001 
 1.346373803500000E+001  1.359905085180000E+001  1.373572358510000E+001  1.387376990210000E+001 
 1.401320360770000E+001  1.415403864540000E+001  1.429628909870000E+001  1.443996919280000E+001 
 1.458509329590000E+001  1.473167592040000E+001  1.487973172490000E+001  1.502927551490000E+001 
 1.518032224500000E+001  1.533288701990000E+001  1.548698509630000E+001  1.564263188420000E+001 
 1.579984294830000E+001  1.595863400980000E+001  1.611902094800000E+001  1.628101980180000E+001 
 1.644464677110000E+001  1.660991821880000E+001  1.677685067210000E+001  1.694546082450000E+001 
 1.711576553710000E+001  1.728778184060000E+001  1.746152693660000E+001  1.763701819980000E+001 
 1.781427317960000E+001  1.799330960160000E+001  1.817414536940000E+001  1.835679856700000E+001 
 1.854128745970000E+001  1.872763049670000E+001  1.891584631230000E+001  1.910595372820000E+001 
 1.929797175550000E+001  1.949191959600000E+001  1.968781664480000E+001  1.988568249160000E+001 
 2.008553692320000E+001  2.028739992520000E+001  2.049129168420000E+001  2.069723258940000E+001 
 2.090524323510000E+001  2.111534442250000E+001  2.132755716200000E+001  2.154190267500000E+001 
 2.175840239620000E+001  2.197707797580000E+001  2.219795128140000E+001  2.242104440070000E+001 
 2.264637964320000E+001  2.287397954240000E+001  2.310386685870000E+001  2.333606458090000E+001 
 2.357059592910000E+001  2.380748435640000E+001  2.404675355210000E+001  2.428842744310000E+001 
 2.453253019710000E+001  2.477908622460000E+001  2.502812018130000E+001  2.527965697100000E+001 
 2.553372174740000E+001  2.579033991720000E+001  2.604953714250000E+001  2.631133934330000E+001 
 2.657577269990000E+001  2.684286365590000E+001  2.711263892070000E+001  2.738512547190000E+001 
 2.766035055850000E+001  2.793834170320000E+001  2.821912670540000E+001  2.850273364380000E+001 
 2.878919087920000E+001  2.907852705780000E+001  2.937077111330000E+001  2.966595227040000E+001 
 2.996410004740000E+001  3.026524425940000E+001  3.056941502110000E+001  3.087664274970000E+001 
 3.118695816830000E+001  3.150039230870000E+001  3.181697651470000E+001  3.213674244480000E+001 
 3.245972207590000E+001  3.278594770620000E+001  3.311545195870000E+001  3.344826778390000E+001 
 3.378442846380000E+001  3.412396761480000E+001  3.446691919090000E+001  3.481331748760000E+001 
 3.516319714510000E+001  3.551659315160000E+001  3.587354084710000E+001  3.623407592650000E+001 
 3.659823444370000E+001  3.696605281480000E+001  3.733756782210000E+001  3.771281661720000E+001 
 3.809183672540000E+001  3.847466604900000E+001  3.886134287130000E+001  3.925190586030000E+001 
 3.964639407260000E+001  4.004484695730000E+001  4.044730436010000E+001  4.085380652700000E+001 
 4.126439410860000E+001  4.167910816400000E+001  4.209799016500000E+001  4.252108200010000E+001 
 4.294842597880000E+001  4.338006483590000E+001  4.381604173560000E+001  4.425640027600000E+001 
 4.470118449330000E+001  4.515043886630000E+001  4.560420832080000E+001  4.606253823420000E+001 
 4.652547443980000E+001  4.699306323160000E+001  4.746535136890000E+001  4.794238608080000E+001 
 4.842421507130000E+001  4.891088652370000E+001  4.940244910550000E+001  4.989895197340000E+001 
 5.040044477810000E+001  5.090697766920000E+001  5.141860130050000E+001  5.193536683480000E+001 
 5.245732594910000E+001  5.298453083970000E+001  5.351703422750000E+001  5.405488936330000E+001 
 5.459815003310000E+001  5.514687056350000E+001  5.570110582680000E+001  5.626091124710000E+001 
 5.682634280550000E+001  5.739745704540000E+001  5.797431107900000E+001  5.855696259190000E+001 
 5.914546984990000E+001  5.973989170410000E+001  6.034028759740000E+001  6.094671756960000E+001 
 6.155924226440000E+001  6.217792293480000E+001  6.280282144920000E+001  6.343400029810000E+001 
 6.407152259990001E+001  6.471545210740000E+001  6.536585321400000E+001  6.602279096040000E+001 
 6.668633104090000E+001  6.735653981010000E+001  6.803348428939999E+001  6.871723217380000E+001 
 6.940785183880000E+001  7.010541234670001E+001  7.080998345430000E+001  7.152163561920000E+001 
 7.224044000729999E+001  7.296646849960000E+001  7.369979369959999E+001  7.444048894030000E+001 
 7.518862829200000E+001  7.594428656920000E+001  7.670753933829999E+001  7.747846292529999E+001 
 7.825713442310000E+001  7.904363169960000E+001  7.983803340510001E+001  8.064041898050000E+001 
 8.145086866500000E+001  8.226946350420000E+001  8.309628535829999E+001  8.393141691030000E+001 
 8.477494167380000E+001  8.562694400220001E+001  8.648750909630000E+001  8.735672301340000E+001 
 8.823467267570000E+001  8.912144587870000E+001  9.001713130050000E+001  9.092181851050000E+001 
 9.183559797820000E+001  9.275856108210000E+001  9.369080011950000E+001  9.463240831490000E+001 
 9.558347983010000E+001  9.654410977280000E+001  9.751439420710000E+001  9.849443016190000E+001 
 9.948431564190000E+001
    </PP_R>
    <PP_RAB type="real" size="1061" columns="4">
 2.478752176670000E-005  2.503664050200000E-005  2.528826292230000E-005  2.554241418990000E-005 
 2.579911972030000E-005  2.605840518410000E-005  2.632029651010000E-005  2.658481988780000E-005 
 2.685200176950000E-005  2.712186887390000E-005  2.739444818770000E-005  2.766976696910000E-005 
 2.794785275040000E-005  2.822873334020000E-005  2.851243682680000E-005  2.879899158090000E-005 
 2.908842625810000E-005  2.938076980220000E-005  2.967605144780000E-005  2.997430072330000E-005 
 3.027554745380000E-005  3.057982176420000E-005  3.088715408240000E-005  3.119757514160000E-005 
 3.151111598440000E-005  3.182780796510000E-005  3.214768275310000E-005  3.247077233610000E-005 
 3.279710902340000E-005  3.312672544900000E-005  3.345965457470000E-005  3.379592969380000E-005 
 3.413558443400000E-005  3.447865276100000E-005  3.482516898210000E-005  3.517516774910000E-005 
 3.552868406220000E-005  3.588575327330000E-005  3.624641108970000E-005  3.661069357730000E-005 
 3.697863716480000E-005  3.735027864690000E-005  3.772565518790000E-005  3.810480432590000E-005 
 3.848776397610000E-005  3.887457243480000E-005  3.926526838310000E-005  3.965989089090000E-005 
 4.005847942090000E-005  4.046107383220000E-005  4.086771438460000E-005  4.127844174260000E-005 
 4.169329697900000E-005  4.211232158000000E-005  4.253555744820000E-005  4.296304690750000E-005 
 4.339483270740000E-005  4.383095802670000E-005  4.427146647830000E-005  4.471640211350000E-005 
 4.516580942610000E-005  4.561973335740000E-005  4.607821929990000E-005  4.654131310280000E-005 
 4.700906107580000E-005  4.748150999410000E-005  4.795870710300000E-005  4.844070012250000E-005 
 4.892753725240000E-005  4.941926717680000E-005  4.991593906910000E-005  5.041760259690000E-005 
 5.092430792700000E-005  5.143610573030000E-005  5.195304718710000E-005  5.247518399180000E-005 
 5.300256835870000E-005  5.353525302660000E-005  5.407329126440000E-005  5.461673687640000E-005 
 5.516564420760000E-005  5.572006814920000E-005  5.628006414400000E-005  5.684568819220000E-005 
 5.741699685650000E-005  5.799404726840000E-005  5.857689713340000E-005  5.916560473680000E-005 
 5.976022895010000E-005  6.036082923600000E-005  6.096746565520000E-005  6.158019887170000E-005 
 6.219909015940000E-005  6.282420140800000E-005  6.345559512909999E-005  6.409333446260000E-005 