<UPF version="2.0.1">
  <PP_INFO>
    Generated by new atomic code, or converted to UPF format
    Author: 
    Generation date: 
    Pseudopotential type: US
    Element: N
    Functional:  SLA  PW   PBE  PBE

    Suggested minimum cutoff for wavefunctions:   0. Ry
    Suggested minimum cutoff for charge density:   0. Ry
    The Pseudo was generated with a Non-Relativistic Calculation
    L component and cutoff radius for Local Potential:  0   0.0000

    Valence configuration: 
    nl pn  l   occ       Rcut    Rcut US       E pseu
    2S  0  0  2.00      1.300      1.500     0.000000
    2P  0  1  3.00      1.300      1.500     0.000000

    Generation configuration: not available.
  </PP_INFO>
  <!--                               -->
  <!-- END OF HUMAN READABLE SECTION -->
  <!--                               -->
  <PP_HEADER generated="Generated by new atomic code, or converted to UPF format"
             author=""
             date=""
             comment=""
             element="N "
             pseudo_type="US"
             relativistic="no"
             is_ultrasoft="T"
             is_paw="F"
             is_coulomb="F"
             has_so="F"
             has_wfc="F"
             has_gipaw="F"
             paw_as_gipaw="F"
             core_correction="F"
             functional=" SLA  PW   PBE  PBE"
             z_valence="5.000000000000000E+000"
             total_psenergy="-1.924364012300000E+001"
             wfc_cutoff="0.000000000000000E+000"
             rho_cutoff="0.000000000000000E+000"
             l_max="2"
             l_max_rho="0"
             l_local="0"
             mesh_size="1257"
             number_of_wfc="2"
             number_of_proj="4"/>
  <PP_MESH dx="1.000000000000292E-002" mesh="1257" xmin="-6.000000000001354E+000" rmax="1.008959563710000E+002"
zmesh="7.000000000000000E+000">
    <PP_R type="real" size="1257" columns="4">
 3.541074538090000E-004  3.576662928860000E-004  3.612608988900000E-004  3.648916312850000E-004 
 3.685588531470000E-004  3.722629312010000E-004  3.760042358590000E-004  3.797831412540000E-004 
 3.836000252790000E-004  3.874552696270000E-004  3.913492598240000E-004  3.952823852740000E-004 
 3.992550392910000E-004  4.032676191450000E-004  4.073205260970000E-004  4.114141654410000E-004 
 4.155489465450000E-004  4.197252828890000E-004  4.239435921120000E-004  4.282042960470000E-004 
 4.325078207680000E-004  4.368545966320000E-004  4.412450583200000E-004  4.456796448810000E-004 
 4.501587997780000E-004  4.546829709300000E-004  4.592526107580000E-004  4.638681762300000E-004 
 4.685301289060000E-004  4.732389349860000E-004  4.779950653530000E-004  4.827989956250000E-004 
 4.876512061990000E-004  4.925521823000000E-004  4.975024140300000E-004  5.025023964160000E-004 
 5.075526294599999E-004  5.126536181900000E-004  5.178058727090000E-004  5.230099082470000E-004 
 5.282662452120000E-004  5.335754092410000E-004  5.389379312560000E-004  5.443543475130000E-004 
 5.498251996590000E-004  5.553510347820000E-004  5.609324054720000E-004  5.665698698700000E-004 
 5.722639917270000E-004  5.780153404600000E-004  5.838244912089999E-004  5.896920248940000E-004 
 5.956185282720001E-004  6.016045940000000E-004  6.076508206880000E-004  6.137578129650000E-004 
 6.199261815340000E-004  6.261565432380000E-004  6.324495211190000E-004  6.388057444780000E-004 
 6.452258489450000E-004  6.517104765340000E-004  6.582602757130000E-004  6.648759014690000E-004 
 6.715580153690000E-004  6.783072856300000E-004  6.851243871850001E-004  6.920100017499999E-004 
 6.989648178910000E-004  7.059895310970000E-004  7.130848438440000E-004  7.202514656700001E-004 
 7.274901132430000E-004  7.348015104330000E-004  7.421863883860000E-004  7.496454855970000E-004 
 7.571795479810000E-004  7.647893289510000E-004  7.724755894920000E-004  7.802390982340000E-004 
 7.880806315370000E-004  7.960009735600000E-004  8.040009163430000E-004  8.120812598889999E-004 
 8.202428122360000E-004  8.284863895490000E-004  8.368128161910000E-004  8.452229248119999E-004 
 8.537175564290000E-004  8.622975605139999E-004  8.709637950740000E-004  8.797171267380000E-004 
 8.885584308490000E-004  8.974885915430000E-004  9.065085018440000E-004  9.156190637510000E-004 
 9.248211883270000E-004  9.341157957930000E-004  9.435038156160000E-004  9.529861866080000E-004 
 9.625638570120000E-004  9.722377846040000E-004  9.820089367850000E-004  9.918782906780000E-004 
 1.001846833230000E-003  1.011915561290000E-003  1.022085481760000E-003  1.032357611630000E-003 
 1.042732978110000E-003  1.053212618770000E-003  1.063797581560000E-003  1.074488925000000E-003 
 1.085287718230000E-003  1.096195041130000E-003  1.107211984450000E-003  1.118339649890000E-003 
 1.129579150230000E-003  1.140931609420000E-003  1.152398162730000E-003  1.163979956810000E-003 
 1.175678149860000E-003  1.187493911700000E-003  1.199428423930000E-003  1.211482879990000E-003 
 1.223658485360000E-003  1.235956457590000E-003  1.248378026500000E-003  1.260924434250000E-003 
 1.273596935490000E-003  1.286396797490000E-003  1.299325300240000E-003  1.312383736610000E-003 
 1.325573412440000E-003  1.338895646720000E-003  1.352351771670000E-003  1.365943132930000E-003 
 1.379671089650000E-003  1.393537014620000E-003  1.407542294460000E-003  1.421688329690000E-003 
 1.435976534950000E-003  1.450408339050000E-003  1.464985185200000E-003  1.479708531090000E-003 
 1.494579849060000E-003  1.509600626260000E-003  1.524772364790000E-003  1.540096581820000E-003 
 1.555574809790000E-003  1.571208596540000E-003  1.586999505460000E-003  1.602949115660000E-003 
 1.619059022100000E-003  1.635330835790000E-003  1.651766183920000E-003  1.668366710060000E-003 
 1.685134074250000E-003  1.702069953260000E-003  1.719176040670000E-003  1.736454047130000E-003 
 1.753905700440000E-003  1.771532745780000E-003  1.789336945870000E-003  1.807320081140000E-003 
 1.825483949930000E-003  1.843830368640000E-003  1.862361171920000E-003  1.881078212870000E-003 
 1.899983363210000E-003  1.919078513460000E-003  1.938365573170000E-003  1.957846471050000E-003 
 1.977523155210000E-003  1.997397593330000E-003  2.017471772880000E-003  2.037747701290000E-003 
 2.058227406160000E-003  2.078912935490000E-003  2.099806357840000E-003  2.120909762580000E-003 
 2.142225260070000E-003  2.163754981860000E-003  2.185501080960000E-003  2.207465731990000E-003 
 2.229651131430000E-003  2.252059497840000E-003  2.274693072070000E-003  2.297554117510000E-003 
 2.320644920280000E-003  2.343967789470000E-003  2.367525057390000E-003  2.391319079800000E-003 
 2.415352236100000E-003  2.439626929640000E-003  2.464145587910000E-003  2.488910662780000E-003 
 2.513924630800000E-003  2.539189993380000E-003  2.564709277070000E-003  2.590485033830000E-003 
 2.616519841250000E-003  2.642816302830000E-003  2.669377048250000E-003  2.696204733590000E-003 
 2.723302041660000E-003  2.750671682200000E-003  2.778316392200000E-003  2.806238936150000E-003 
 2.834442106340000E-003  2.862928723100000E-003  2.891701635110000E-003  2.920763719710000E-003 
 2.950117883100000E-003  2.979767060740000E-003  3.009714217580000E-003  3.039962348340000E-003 
 3.070514477870000E-003  3.101373661410000E-003  3.132542984890000E-003  3.164025565290000E-003 
 3.195824550880000E-003  3.227943121590000E-003  3.260384489300000E-003  3.293151898180000E-003 
 3.326248624990000E-003  3.359677979430000E-003  3.393443304470000E-003  3.427547976670000E-003 
 3.461995406530000E-003  3.496789038810000E-003  3.531932352910000E-003  3.567428863180000E-003 
 3.603282119320000E-003  3.639495706670000E-003  3.676073246620000E-003  3.713018396970000E-003 
 3.750334852240000E-003  3.788026344130000E-003  3.826096641810000E-003  3.864549552340000E-003 
 3.903388921040000E-003  3.942618631890000E-003  3.982242607890000E-003  4.022264811470000E-003 
 4.062689244880000E-003  4.103519950610000E-003  4.144761011740000E-003  4.186416552430000E-003 
 4.228490738270000E-003  4.270987776700000E-003  4.313911917470000E-003  4.357267453030000E-003 
 4.401058718960000E-003  4.445290094440000E-003  4.489966002620000E-003  4.535090911150000E-003 
 4.580669332550000E-003  4.626705824700000E-003  4.673204991290000E-003  4.720171482270000E-003 
 4.767609994330000E-003  4.815525271370000E-003  4.863922104940000E-003  4.912805334780000E-003 
 4.962179849250000E-003  5.012050585840000E-003  5.062422531660000E-003  5.113300723950000E-003 
 5.164690250580000E-003  5.216596250530000E-003  5.269023914460000E-003  5.321978485170000E-003 
 5.375465258170000E-003  5.429489582170000E-003  5.484056859650000E-003  5.539172547390000E-003 
 5.594842157000000E-003  5.651071255490000E-003  5.707865465810000E-003  5.765230467430000E-003 
 5.823171996910000E-003  5.881695848440000E-003  5.940807874450000E-003  6.000513986210000E-003 
 6.060820154360000E-003  6.121732409580000E-003  6.183256843140000E-003  6.245399607540000E-003 
 6.308166917100000E-003  6.371565048610000E-003  6.435600341940000E-003  6.500279200660000E-003 
 6.565608092720000E-003  6.631593551060000E-003  6.698242174280000E-003  6.765560627310000E-003 
 6.833555642030000E-003  6.902234018010000E-003  6.971602623140000E-003  7.041668394350000E-003 
 7.112438338270000E-003  7.183919531940000E-003  7.256119123560000E-003  7.329044333130000E-003 
 7.402702453250000E-003  7.477100849780000E-003  7.552246962620000E-003  7.628148306460000E-003 
 7.704812471480000E-003  7.782247124170000E-003  7.860460008060000E-003  7.939458944500001E-003 
 8.019251833450000E-003  8.099846654259999E-003  8.181251466500001E-003  8.263474410689999E-003 
 8.346523709210000E-003  8.430407667060000E-003  8.515134672709999E-003  8.600713198910001E-003 
 8.687151803600000E-003  8.774459130710000E-003  8.862643911049999E-003  8.951714963159999E-003 
 9.041681194229999E-003  9.132551600960000E-003  9.224335270449999E-003  9.317041381159999E-003 
 9.410679203770001E-003  9.505258102149999E-003  9.600787534250000E-003  9.697277053110000E-003 
 9.794736307749999E-003  9.893175044189999E-003  9.992603106380000E-003  1.009303043720000E-002 
 1.019446707950000E-002  1.029692317700000E-002  1.040040897530000E-002  1.050493482330000E-002 
 1.061051117350000E-002  1.071714858360000E-002  1.082485771750000E-002  1.093364934630000E-002 
 1.104353434900000E-002  1.115452371450000E-002  1.126662854150000E-002  1.137986004080000E-002 
 1.149422953560000E-002  1.160974846300000E-002  1.172642837480000E-002  1.184428093930000E-002 
 1.196331794170000E-002  1.208355128590000E-002  1.220499299530000E-002  1.232765521420000E-002 
 1.245155020890000E-002  1.257669036890000E-002  1.270308820850000E-002  1.283075636750000E-002 
 1.295970761280000E-002  1.308995483960000E-002  1.322151107290000E-002  1.335438946830000E-002 
 1.348860331380000E-002  1.362416603080000E-002  1.376109117580000E-002  1.389939244140000E-002 
 1.403908365780000E-002  1.418017879420000E-002  1.432269196040000E-002  1.446663740770000E-002 
 1.461202953080000E-002  1.475888286900000E-002  1.490721210780000E-002  1.505703208030000E-002 
 1.520835776850000E-002  1.536120430510000E-002  1.551558697500000E-002  1.567152121650000E-002 
 1.582902262320000E-002  1.598810694530000E-002  1.614879009150000E-002  1.631108813010000E-002 
 1.647501729120000E-002  1.664059396760000E-002  1.680783471740000E-002  1.697675626460000E-002 
 1.714737550160000E-002  1.731970949050000E-002  1.749377546470000E-002  1.766959083110000E-002 
 1.784717317120000E-002  1.802654024360000E-002  1.820770998500000E-002  1.839070051250000E-002 
 1.857553012550000E-002  1.876221730690000E-002  1.895078072570000E-002  1.914123923840000E-002 
 1.933361189090000E-002  1.952791792080000E-002  1.972417675870000E-002  1.992240803070000E-002 
 2.012263156010000E-002  2.032486736950000E-002  2.052913568250000E-002  2.073545692620000E-002 
 2.094385173290000E-002  2.115434094220000E-002  2.136694560320000E-002  2.158168697660000E-002 
 2.179858653670000E-002  2.201766597360000E-002  2.223894719540000E-002  2.246245233050000E-002 
 2.268820372960000E-002  2.291622396790000E-002  2.314653584770000E-002  2.337916240040000E-002 
 2.361412688880000E-002  2.385145280960000E-002  2.409116389550000E-002  2.433328411790000E-002 
 2.457783768900000E-002  2.482484906430000E-002  2.507434294530000E-002  2.532634428140000E-002 
 2.558087827310000E-002  2.583797037390000E-002  2.609764629320000E-002  2.635993199900000E-002 
 2.662485371990000E-002  2.689243794840000E-002  2.716271144310000E-002  2.743570123150000E-002 
 2.771143461300000E-002  2.798993916100000E-002  2.827124272620000E-002  2.855537343930000E-002 
 2.884235971350000E-002  2.913223024770000E-002  2.942501402930000E-002  2.972074033670000E-002 
 3.001943874300000E-002  3.032113911810000E-002  3.062587163240000E-002  3.093366675940000E-002 
 3.124455527890000E-002  3.155856827990000E-002  3.187573716410000E-002  3.219609364850000E-002 
 3.251966976910000E-002  3.284649788380000E-002  3.317661067570000E-002  3.351004115630000E-002 
 3.384682266890000E-002  3.418698889200000E-002  3.453057384240000E-002  3.487761187910000E-002 
 3.522813770590000E-002  3.558218637600000E-002  3.593979329430000E-002  3.630099422180000E-002 
 3.666582527910000E-002  3.703432294940000E-002  3.740652408290000E-002  3.778246590000000E-002 
 3.816218599510000E-002  3.854572234070000E-002  3.893311329060000E-002  3.932439758430000E-002 
 3.971961435050000E-002  4.011880311120000E-002  4.052200378570000E-002  4.092925669430000E-002 
 4.134060256270000E-002  4.175608252580000E-002  4.217573813200000E-002  4.259961134710000E-002 
 4.302774455890000E-002  4.346018058100000E-002  4.389696265730000E-002  4.433813446650000E-002 
 4.478374012610000E-002  4.523382419700000E-002  4.568843168800000E-002  4.614760806030000E-002 
 4.661139923190000E-002  4.707985158220000E-002  4.755301195690000E-002  4.803092767240000E-002 
 4.851364652070000E-002  4.900121677410000E-002  4.949368719000000E-002  4.999110701590000E-002 
 5.049352599410000E-002  5.100099436700000E-002  5.151356288190000E-002  5.203128279590000E-002 
 5.255420588160000E-002  5.308238443170000E-002  5.361587126450000E-002  5.415471972910000E-002 
 5.469898371070000E-002  5.524871763640000E-002  5.580397647980000E-002  5.636481576740000E-002 
 5.693129158350000E-002  5.750346057620000E-002  5.808137996290000E-002  5.866510753600000E-002 
 5.925470166880000E-002  5.985022132110000E-002  6.045172604540000E-002  6.105927599270000E-002 
 6.167293191840000E-002  6.229275518880000E-002  6.291880778660000E-002  6.355115231760000E-002 
 6.418985201669999E-002  6.483497075460000E-002  6.548657304360000E-002  6.614472404450000E-002 
 6.680948957280000E-002  6.748093610590000E-002  6.815913078870001E-002  6.884414144150000E-002 
 6.953603656570000E-002  7.023488535160000E-002  7.094075768450001E-002  7.165372415229999E-002 
 7.237385605219999E-002  7.310122539810000E-002  7.383590492740000E-002  7.457796810870000E-002 
 7.532748914900000E-002  7.608454300100000E-002  7.684920537070000E-002  7.762155272490000E-002 
 7.840166229910001E-002  7.918961210490000E-002  7.998548093790001E-002  8.078934838559999E-002 
 8.160129483549999E-002  8.242140148290000E-002  8.324975033910000E-002  8.408642423980001E-002 
 8.493150685290000E-002  8.578508268750000E-002  8.664723710180000E-002  8.751805631210000E-002 
 8.839762740090000E-002  8.928603832610001E-002  9.018337792960000E-002  9.108973594600001E-002 
 9.200520301190000E-002  9.292987067480001E-002  9.386383140220000E-002  9.480717859090000E-002 
 9.576000657650000E-002  9.672241064260000E-002  9.769448703030000E-002  9.867633294820000E-002 
 9.966804658160000E-002  1.006697271030000E-001  1.016814746800000E-001  1.027033904900000E-001 
 1.037355767250000E-001  1.047781366030000E-001  1.058311743830000E-001  1.068947953680000E-001 
 1.079691059220000E-001  1.090542134770000E-001  1.101502265430000E-001  1.112572547240000E-001 
 1.123754087240000E-001  1.135048003580000E-001  1.146455425660000E-001  1.157977494240000E-001 
 1.169615361540000E-001  1.181370191350000E-001  1.193243159160000E-001  1.205235452280000E-001 
 1.217348269950000E-001  1.229582823460000E-001  1.241940336280000E-001  1.254422044170000E-001 
 1.267029195310000E-001  1.279763050420000E-001  1.292624882910000E-001  1.305615978960000E-001 
 1.318737637700000E-001  1.331991171290000E-001  1.345377905120000E-001  1.358899177860000E-001 
 1.372556341650000E-001  1.386350762210000E-001  1.400283819010000E-001  1.414356905360000E-001 
 1.428571428570000E-001  1.442928810120000E-001  1.457430485750000E-001  1.472077905650000E-001 
 1.486872534560000E-001  1.501815851970000E-001  1.516909352210000E-001  1.532154544650000E-001 
 1.547552953820000E-001  1.563106119580000E-001  1.578815597250000E-001  1.594682957800000E-001 
 1.610709787970000E-001  1.626897690460000E-001  1.643248284080000E-001  1.659763203900000E-001 
 1.676444101420000E-001  1.693292644740000E-001  1.710310518750000E-001  1.727499425220000E-001 
 1.744861083090000E-001  1.762397228510000E-001  1.780109615120000E-001  1.798000014180000E-001 
 1.816070214740000E-001  1.834322023840000E-001  1.852757266670000E-001  1.871377786760000E-001 
 1.890185446200000E-001  1.909182125750000E-001  1.928369725110000E-001  1.947750163050000E-001 
 1.967325377620000E-001  1.987097326380000E-001  2.007067986520000E-001  2.027239355130000E-001 
 2.047613449370000E-001  2.068192306660000E-001  2.088977984910000E-001  2.109972562690000E-001 
 2.131178139490000E-001  2.152596835880000E-001  2.174230793740000E-001  2.196082176500000E-001 
 2.218153169300000E-001  2.240445979270000E-001  2.262962835710000E-001  2.285705990310000E-001 
 2.308677717420000E-001  2.331880314220000E-001  2.355316101000000E-001  2.378987421350000E-001 
 2.402896642430000E-001  2.427046155170000E-001  2.451438374550000E-001  2.476075739810000E-001 
 2.500960714710000E-001  2.526095787760000E-001  2.551483472500000E-001  2.577126307710000E-001 
 2.603026857700000E-001  2.629187712550000E-001  2.655611488350000E-001  2.682300827520000E-001 
 2.709258399010000E-001  2.736486898590000E-001  2.763989049150000E-001  2.791767600910000E-001 
 2.819825331760000E-001  2.848165047490000E-001  2.876789582100000E-001  2.905701798070000E-001 
 2.934904586630000E-001  2.964400868110000E-001  2.994193592130000E-001  3.024285738020000E-001 
 3.054680315000000E-001  3.085380362550000E-001  3.116388950710000E-001  3.147709180370000E-001 
 3.179344183560000E-001  3.211297123820000E-001  3.243571196470000E-001  3.276169628950000E-001 
 3.309095681120000E-001  3.342352645610000E-001  3.375943848150000E-001  3.409872647890000E-001 
 3.444142437740000E-001  3.478756644700000E-001  3.513718730220000E-001  3.549032190550000E-001 
 3.584700557050000E-001  3.620727396600000E-001  3.657116311900000E-001  3.693870941880000E-001 
 3.730994962030000E-001  3.768492084790000E-001  3.806366059900000E-001  3.844620674780000E-001 
 3.883259754940000E-001  3.922287164310000E-001  3.961706805660000E-001  4.001522621000000E-001 
 4.041738591930000E-001  4.082358740090000E-001  4.123387127530000E-001  4.164827857110000E-001 
 4.206685072950000E-001  4.248962960800000E-001  4.291665748490000E-001  4.334797706340000E-001 
 4.378363147560000E-001  4.422366428750000E-001  4.466811950270000E-001  4.511704156700000E-001 
 4.557047537310000E-001  4.602846626470000E-001  4.649106004130000E-001  4.695830296260000E-001 
 4.743024175340000E-001  4.790692360780000E-001  4.838839619460000E-001  4.887470766130000E-001 
 4.936590663950000E-001  4.986204224950000E-001  5.036316410520000E-001  5.086932231940000E-001 
 5.138056750809999E-001  5.189695079650000E-001  5.241852382310001E-001  5.294533874589999E-001 
 5.347744824660000E-001  5.401490553670000E-001  5.455776436240000E-001  5.510607901000000E-001 
 5.565990431140000E-001  5.621929564960000E-001  5.678430896420000E-001  5.735500075710001E-001 
 5.793142809780000E-001  5.851364862960000E-001  5.910172057500001E-001  5.969570274180001E-001 
 6.029565452850000E-001  6.090163593100000E-001  6.151370754780000E-001  6.213193058660000E-001 
 6.275636687030000E-001  6.338707884290000E-001  6.402412957630000E-001  6.466758277590000E-001 
 6.531750278770000E-001  6.597395460430000E-001  6.663700387130000E-001  6.730671689420000E-001 
 6.798316064480000E-001  6.866640276820000E-001  6.935651158910000E-001  7.005355611900000E-001 
 7.075760606280000E-001  7.146873182620000E-001  7.218700452230000E-001  7.291249597910000E-001 
 7.364527874620000E-001  7.438542610260001E-001  7.513301206350000E-001  7.588811138829999E-001 
 7.665079958750000E-001  7.742115293039999E-001  7.819924845320000E-001  7.898516396610000E-001 
 7.977897806110000E-001  8.058077012040000E-001  8.139062032390000E-001  8.220860965720000E-001 
 8.303481992000000E-001  8.386933373400000E-001  8.471223455130000E-001  8.556360666260000E-001 
 8.642353520590000E-001  8.729210617470000E-001  8.816940642690000E-001  8.905552369320000E-001 
 8.995054658610000E-001  9.085456460860000E-001  9.176766816330000E-001  9.268994856120000E-001 
 9.362149803130000E-001  9.456240972920000E-001  9.551277774680000E-001  9.647269712190000E-001 
 9.744226384700000E-001  9.842157487970000E-001  9.941072815200001E-001  1.004098225800000E+000 
 1.014189580740000E+000  1.024382355480000E+000  1.034677569310000E+000  1.045076251760000E+000 
 1.055579442700000E+000  1.066188192470000E+000  1.076903561950000E+000  1.087726622680000E+000 
 1.098658456980000E+000  1.109700158040000E+000  1.120852830050000E+000  1.132117588260000E+000 
 1.143495559190000E+000  1.154987880620000E+000  1.166595701800000E+000  1.178320183520000E+000 
 1.190162498240000E+000  1.202123830210000E+000  1.214205375560000E+000  1.226408342450000E+000 
 1.238733951210000E+000  1.251183434390000E+000  1.263758036960000E+000  1.276459016390000E+000 
 1.289287642780000E+000  1.302245199010000E+000  1.315332980840000E+000  1.328552297070000E+000 
 1.341904469630000E+000  1.355390833770000E+000  1.369012738110000E+000  1.382771544870000E+000 
 1.396668629930000E+000  1.410705383020000E+000  1.424883207830000E+000  1.439203522140000E+000 
 1.453667758010000E+000  1.468277361860000E+000  1.483033794680000E+000  1.497938532100000E+000 
 1.512993064630000E+000  1.528198897730000E+000  1.543557551990000E+000  1.559070563290000E+000 
 1.574739482950000E+000  1.590565877870000E+000  1.606551330700000E+000  1.622697440000000E+000 
 1.639005820400000E+000  1.655478102750000E+000  1.672115934280000E+000  1.688920978810000E+000 
 1.705894916840000E+000  1.723039445780000E+000  1.740356280100000E+000  1.757847151500000E+000 
 1.775513809080000E+000  1.793358019520000E+000  1.811381567260000E+000  1.829586254670000E+000 
 1.847973902220000E+000  1.866546348700000E+000  1.885305451380000E+000  1.904253086170000E+000 
 1.923391147860000E+000  1.942721550260000E+000  1.962246226440000E+000  1.981967128880000E+000 
 2.001886229680000E+000  2.022005520770000E+000  2.042327014100000E+000  2.062852741830000E+000 
 2.083584756550000E+000  2.104525131490000E+000  2.125675960700000E+000  2.147039359270000E+000 
 2.168617463560000E+000  2.190412431420000E+000  2.212426442330000E+000  2.234661697740000E+000 
 2.257120421180000E+000  2.279804858540000E+000  2.302717278290000E+000  2.325859971680000E+000 
 2.349235253010000E+000  2.372845459830000E+000  2.396692953160000E+000  2.420780117790000E+000 
 2.445109362450000E+000  2.469683120080000E+000  2.494503848080000E+000  2.519574028550000E+000 
 2.544896168520000E+000  2.570472800220000E+000  2.596306481350000E+000  2.622399795290000E+000 
 2.648755351390000E+000  2.675375785240000E+000  2.702263758890000E+000  2.729421961180000E+000 
 2.756853107930000E+000  2.784559942290000E+000  2.812545234970000E+000  2.840811784510000E+000 
 2.869362417600000E+000  2.898199989320000E+000  2.927327383460000E+000  2.956747512770000E+000 
 2.986463319300000E+000  3.016477774650000E+000  3.046793880290000E+000  3.077414667860000E+000 
 3.108343199460000E+000  3.139582567970000E+000  3.171135897350000E+000  3.203006342960000E+000 
 3.235197091880000E+000  3.267711363210000E+000  3.300552408390000E+000  3.333723511560000E+000 
 3.367227989870000E+000  3.401069193780000E+000  3.435250507440000E+000  3.469775349010000E+000 
 3.504647171020000E+000  3.539869460660000E+000  3.575445740190000E+000  3.611379567280000E+000 
 3.647674535340000E+000  3.684334273880000E+000  3.721362448930000E+000  3.758762763320000E+000 
 3.796538957120000E+000  3.834694807990000E+000  3.873234131520000E+000  3.912160781700000E+000 
 3.951478651220000E+000  3.991191671890000E+000  4.031303815060000E+000  4.071819091970000E+000 
 4.112741554180000E+000  4.154075293970000E+000  4.195824444760000E+000  4.237993181480000E+000 
 4.280585721060000E+000  4.323606322770000E+000  4.367059288720000E+000  4.410948964240000E+000 
 4.455279738330000E+000  4.500056044110000E+000  4.545282359240000E+000  4.590963206390000E+000 
 4.637103153690000E+000  4.683706815180000E+000  4.730778851240000E+000  4.778323969130000E+000 
 4.826346923410000E+000  4.874852516390000E+000  4.923845598690000E+000  4.973331069660000E+000 
 5.023313877870000E+000  5.073799021660000E+000  5.124791549580000E+000  5.176296560930000E+000 
 5.228319206240000E+000  5.280864687830000E+000  5.333938260290000E+000  5.387545231030000E+000 
 5.441690960770000E+000  5.496380864150000E+000  5.551620410190000E+000  5.607415122900000E+000 
 5.663770581800000E+000  5.720692422470000E+000  5.778186337150000E+000  5.836258075280000E+000 
 5.894913444090000E+000  5.954158309150000E+000  6.013998595000000E+000  6.074440285720000E+000 
 6.135489425540000E+000  6.197152119410000E+000  6.259434533650000E+000  6.322342896570000E+000 
 6.385883499040000E+000  6.450062695190000E+000  6.514886902980000E+000  6.580362604890000E+000 
 6.646496348540000E+000  6.713294747370000E+000  6.780764481260000E+000  6.848912297260000E+000 
 6.917745010190000E+000  6.987269503390000E+000  7.057492729360000E+000  7.128421710490000E+000 
 7.200063539720000E+000  7.272425381310000E+000  7.345514471500000E+000  7.419338119260000E+000 
 7.493903707010000E+000  7.569218691380000E+000  7.645290603930000E+000  7.722127051900000E+000 
 7.799735719020000E+000  7.878124366210000E+000  7.957300832400000E+000  8.037273035300000E+000 
 8.118048972210000E+000  8.199636720779999E+000  8.282044439850001E+000  8.365280370270000E+000 
 8.449352835699999E+000  8.534270243450001E+000  8.620041085340000E+000  8.706673938520000E+000 
 8.794177466350000E+000  8.882560419250000E+000  8.971831635599999E+000  9.062000042590000E+000 
 9.153074657130000E+000  9.245064586770001E+000  9.337979030570001E+000  9.431827280060000E+000 
 9.526618720129999E+000  9.622362830020000E+000  9.719069184200000E+000  9.816747453410001E+000 
 9.915407405540000E+000  1.001505890670000E+001  1.011571192200000E+001  1.021737651700000E+001 
 1.032006285820000E+001  1.042378121420000E+001  1.052854195710000E+001  1.063435556290000E+001 
 1.074123261310000E+001  1.084918379560000E+001  1.095821990550000E+001  1.106835184650000E+001 
 1.117959063190000E+001  1.129194738570000E+001  1.140543334360000E+001  1.152005985440000E+001 
 1.163583838070000E+001  1.175278050060000E+001  1.187089790830000E+001  1.199020241580000E+001 
 1.211070595340000E+001  1.223242057170000E+001  1.235535844230000E+001  1.247953185910000E+001 
 1.260495323940000E+001  1.273163512550000E+001  1.285959018580000E+001  1.298883121580000E+001 
 1.311937113970000E+001  1.325122301170000E+001  1.338440001710000E+001  1.351891547360000E+001 
 1.365478283290000E+001  1.379201568180000E+001  1.393062774390000E+001  1.407063288030000E+001 
 1.421204509170000E+001  1.435487851950000E+001  1.449914744710000E+001  1.464486630150000E+001 
 1.479204965480000E+001  1.494071222530000E+001  1.509086887950000E+001  1.524253463320000E+001 
 1.539572465310000E+001  1.555045425820000E+001  1.570673892170000E+001  1.586459427220000E+001 
 1.602403609540000E+001  1.618508033550000E+001  1.634774309720000E+001  1.651204064670000E+001 
 1.667798941410000E+001  1.684560599440000E+001  1.701490714930000E+001  1.718590980900000E+001 
 1.735863107410000E+001  1.753308821680000E+001  1.770929868280000E+001  1.788728009350000E+001 
 1.806705024720000E+001  1.824862712090000E+001  1.843202887250000E+001  1.861727384240000E+001 
 1.880438055510000E+001  1.899336772160000E+001  1.918425424070000E+001  1.937705920120000E+001 
 1.957180188380000E+001  1.976850176290000E+001  1.996717850860000E+001  2.016785198880000E+001 
 2.037054227100000E+001  2.057526962440000E+001  2.078205452190000E+001  2.099091764220000E+001 
 2.120187987180000E+001  2.141496230700000E+001  2.163018625630000E+001  2.184757324220000E+001 
 2.206714500370000E+001  2.228892349810000E+001  2.251293090330000E+001  2.273918962050000E+001 
 2.296772227550000E+001  2.319855172190000E+001  2.343170104280000E+001  2.366719355340000E+001 
 2.390505280300000E+001  2.414530257780000E+001  2.438796690300000E+001  2.463307004530000E+001 
 2.488063651500000E+001  2.513069106920000E+001  2.538325871330000E+001  2.563836470450000E+001 
 2.589603455360000E+001  2.615629402770000E+001  2.641916915300000E+001  2.668468621720000E+001 
 2.695287177220000E+001  2.722375263690000E+001  2.749735589960000E+001  2.777370892080000E+001 
 2.805283933600000E+001  2.833477505850000E+001  2.861954428210000E+001  2.890717548400000E+001 
 2.919769742760000E+001  2.949113916520000E+001  2.978753004130000E+001  3.008689969520000E+001 
 3.038927806420000E+001  3.069469538630000E+001  3.100318220360000E+001  3.131476936490000E+001 
 3.162948802920000E+001  3.194736966860000E+001  3.226844607170000E+001  3.259274934630000E+001 
 3.292031192290000E+001  3.325116655820000E+001  3.358534633790000E+001  3.392288468020000E+001 
 3.426381533920000E+001  3.460817240830000E+001  3.495599032350000E+001  3.530730386680000E+001 
 3.566214817000000E+001  3.602055871760000E+001  3.638257135120000E+001  3.674822227230000E+001 