<UPF version="2.0.1">
  <PP_INFO>
    Generated by new atomic code, or converted to UPF format
    Author: 
    Generation date: 
    Pseudopotential type: US
    Element: O
    Functional:  SLA  PW   PBE  PBE

    Suggested minimum cutoff for wavefunctions:   0. Ry
    Suggested minimum cutoff for charge density:   0. Ry
    The Pseudo was generated with a Non-Relativistic Calculation
    L component and cutoff radius for Local Potential:  0   0.0000

    Valence configuration: 
    nl pn  l   occ       Rcut    Rcut US       E pseu
    2S  0  0  2.00     10.000      1.200     0.000000
    2P  0  1  4.00     10.000      1.200     0.000000

    Generation configuration: not available.
  </PP_INFO>
  <!--                               -->
  <!-- END OF HUMAN READABLE SECTION -->
  <!--                               -->
  <PP_HEADER generated="Generated by new atomic code, or converted to UPF format"
             author=""
             date=""
             comment=""
             element="O "
             pseudo_type="US"
             relativistic="no"
             is_ultrasoft="T"
             is_paw="F"
             is_coulomb="F"
             has_so="F"
             has_wfc="F"
             has_gipaw="F"
             paw_as_gipaw="F"
             core_correction="F"
             functional=" SLA  PW   PBE  PBE"
             z_valence="6.000000000000000E+000"
             total_psenergy="-3.158756338707000E+001"
             wfc_cutoff="0.000000000000000E+000"
             rho_cutoff="0.000000000000000E+000"
             l_max="1"
             l_max_rho="0"
             l_local="0"
             mesh_size="737"
             number_of_wfc="2"
             number_of_proj="4"/>
  <PP_MESH dx="Infinity" mesh="737" xmin="-Infinity" rmax="8.105524075740000E+001" zmesh="8.000000000000000E+000">
    <PP_R type="real" size="737" columns="4">
 0.000000000000000E+000  5.296351134990000E-006  1.068323600100000E-005  1.616220214570000E-005 
 2.173482357020000E-005  2.740270118070000E-005  3.316746324880000E-005  3.903076587910000E-005 
 4.499429348490000E-005  5.105975927240000E-005  5.722890573250000E-005  6.350350514150000E-005 
 6.988536007060000E-005  7.637630390300000E-005  8.297820136140000E-005  8.969294904320001E-005 
 9.652247596540000E-005  1.034687441190000E-004  1.105337490320000E-004  1.177195203450000E-004 
 1.250281223890000E-004  1.324616547850000E-004  1.400222530430000E-004  1.477120891770000E-004 
 1.555333723280000E-004  1.634883493980000E-004  1.715793057000000E-004  1.798085656070000E-004 
 1.881784932280000E-004  1.966914930800000E-004  2.053500107840000E-004  2.141565337640000E-004 
 2.231135919640000E-004  2.322237585730000E-004  2.414896507660000E-004  2.509139304550000E-004 
 2.604993050520000E-004  2.702485282510000E-004  2.801644008140000E-004  2.902497713790000E-004 
 3.005075372800000E-004  3.109406453720000E-004  3.215520928870000E-004  3.323449282870000E-004 
 3.433222521460000E-004  3.544872180360000E-004  3.658430334370000E-004  3.773929606530000E-004 
 3.891403177550000E-004  4.010884795330000E-004  4.132408784610000E-004  4.256010056890000E-004 
 4.381724120410000E-004  4.509587090410000E-004  4.639635699430000E-004  4.771907307920000E-004 
 4.906439914960000E-004  5.043272169160000E-004  5.182443379780000E-004  5.323993528020000E-004 
 5.467963278500000E-004  5.614393990930000E-004  5.763327732030000E-004  5.914807287580000E-004 
 6.068876174730000E-004  6.225578654480000E-004  6.384959744420000E-004  6.547065231670000E-004 
 6.711941685980000E-004  6.879636473180000E-004  7.050197768720000E-004  7.223674571580000E-004 
 7.400116718270000E-004  7.579574897210000E-004  7.762100663270000E-004  7.947746452570000E-004 
 8.136565597540000E-004  8.328612342280000E-004  8.523941858100000E-004  8.722610259379999E-004 
 8.924674619730000E-004  9.130192988300000E-004  9.339224406570000E-004  9.551828925200000E-004 
 9.768067621359999E-004  9.988002616250001E-004  1.021169709290000E-003  1.043921531450000E-003 
 1.067062264250000E-003  1.090598555590000E-003  1.114537166980000E-003  1.138884975520000E-003 
 1.163648975870000E-003  1.188836282240000E-003  1.214454130470000E-003  1.240509880050000E-003 
 1.267011016310000E-003  1.293965152520000E-003  1.321380032060000E-003  1.349263530700000E-003 
 1.377623658850000E-003  1.406468563800000E-003  1.435806532150000E-003  1.465645992120000E-003 
 1.495995516010000E-003  1.526863822660000E-003  1.558259779930000E-003  1.590192407280000E-003 
 1.622670878320000E-003  1.655704523500000E-003  1.689302832740000E-003  1.723475458190000E-003 
 1.758232216970000E-003  1.793583094040000E-003  1.829538245020000E-003  1.866107999130000E-003 
 1.903302862140000E-003  1.941133519430000E-003  1.979610839010000E-003  2.018745874660000E-003 
 2.058549869140000E-003  2.099034257350000E-003  2.140210669670000E-003  2.182090935300000E-003 
 2.224687085610000E-003  2.268011357670000E-003  2.312076197700000E-003  2.356894264670000E-003 
 2.402478433950000E-003  2.448841800980000E-003  2.495997685060000E-003  2.543959633180000E-003 
 2.592741423860000E-003  2.642357071170000E-003  2.692820828720000E-003  2.744147193790000E-003 
 2.796350911430000E-003  2.849446978770000E-003  2.903450649280000E-003  2.958377437170000E-003 
 3.014243121850000E-003  3.071063752430000E-003  3.128855652390000E-003  3.187635424230000E-003 
 3.247419954240000E-003  3.308226417350000E-003  3.370072282080000E-003  3.432975315560000E-003 
 3.496953588610000E-003  3.562025480940000E-003  3.628209686460000E-003  3.695525218610000E-003 
 3.763991415830000E-003  3.833627947140000E-003  3.904454817770000E-003  3.976492374910000E-003 
 4.049761313540000E-003  4.124282682430000E-003  4.200077890120000E-003  4.277168711100000E-003 
 4.355577292080000E-003  4.435326158320000E-003  4.516438220130000E-003  4.598936779430000E-003 
 4.682845536470000E-003  4.768188596610000E-003  4.854990477260000E-003  4.943276114910000E-003 
 5.033070872330000E-003  5.124400545800000E-003  5.217291372580000E-003  5.311770038410000E-003 
 5.407863685170000E-003  5.505599918720000E-003  5.605006816780000E-003  5.706112937020000E-003 
 5.808947325280000E-003  5.913539523900000E-003  6.019919580180000E-003  6.128118055060000E-003 
 6.238166031860000E-003  6.350095125240000E-003  6.463937490260000E-003  6.579725831630000E-003 
 6.697493413100000E-003  6.817274067020000E-003  6.939102204050000E-003  7.063012823060000E-003 
 7.189041521170000E-003  7.317224503990000E-003  7.447598596000000E-003  7.580201251160000E-003 
 7.715070563660000E-003  7.852245278820001E-003  7.991764804300000E-003  8.133669221350000E-003 
 8.277999296360000E-003  8.424796492579999E-003  8.574102981990000E-003  8.725961657469999E-003 
 8.880416145070000E-003  9.037510816580000E-003  9.197290802249999E-003  9.359802003779999E-003 
 9.525091107510000E-003  9.693205597780001E-003  9.864193770640000E-003  1.003810474770000E-002 
 1.021498849020000E-002  1.039489581340000E-002  1.057787840120000E-002  1.076398882090000E-002 
 1.095328053860000E-002  1.114580793400000E-002  1.134162631650000E-002  1.154079194100000E-002 
 1.174336202390000E-002  1.194939475960000E-002  1.215894933740000E-002  1.237208595830000E-002 
 1.258886585220000E-002  1.280935129590000E-002  1.303360563060000E-002  1.326169328010000E-002 
 1.349367976960000E-002  1.372963174450000E-002  1.396961698900000E-002  1.421370444640000E-002 
 1.446196423820000E-002  1.471446768470000E-002  1.497128732520000E-002  1.523249693900000E-002 
 1.549817156660000E-002  1.576838753120000E-002  1.604322246060000E-002  1.632275530960000E-002 
 1.660706638250000E-002  1.689623735640000E-002  1.719035130450000E-002  1.748949272010000E-002 
 1.779374754070000E-002  1.810320317290000E-002  1.841794851720000E-002  1.873807399390000E-002 
 1.906367156880000E-002  1.939483477990000E-002  1.973165876390000E-002  2.007424028380000E-002 
 2.042267775670000E-002  2.077707128200000E-002  2.113752266990000E-002  2.150413547130000E-002 
 2.187701500680000E-002  2.225626839760000E-002  2.264200459590000E-002  2.303433441610000E-002 
 2.343337056700000E-002  2.383922768410000E-002  2.425202236210000E-002  2.467187318910000E-002 
 2.509890078000000E-002  2.553322781160000E-002  2.597497905770000E-002  2.642428142480000E-002 
 2.688126398880000E-002  2.734605803190000E-002  2.781879708060000E-002  2.829961694350000E-002 
 2.878865575100000E-002  2.928605399430000E-002  2.979195456650000E-002  3.030650280290000E-002 
 3.082984652330000E-002  3.136213607420000E-002  3.190352437210000E-002  3.245416694740000E-002 
 3.301422198900000E-002  3.358385038990000E-002  3.416321579340000E-002  3.475248463990000E-002 
 3.535182621490000E-002  3.596141269770000E-002  3.658141921060000E-002  3.721202386970000E-002 
 3.785340783520000E-002  3.850575536460000E-002  3.916925386450000E-002  3.984409394530000E-002 
 4.053046947550000E-002  4.122857763750000E-002  4.193861898410000E-002  4.266079749670000E-002 
 4.339532064310000E-002  4.414239943750000E-002  4.490224850130000E-002  4.567508612430000E-002 
 4.646113432800000E-002  4.726061892870000E-002  4.807376960290000E-002  4.890081995290000E-002 
 4.974200757450000E-002  5.059757412450000E-002  5.146776539070000E-002  5.235283136200000E-002 
 5.325302630100000E-002  5.416860881610000E-002  5.509984193650000E-002  5.604699318740000E-002 
 5.701033466720000E-002  5.799014312500000E-002  5.898670004110000E-002  6.000029170680000E-002 
 6.103120930740000E-002  6.207974900570000E-002  6.314621202670000E-002  6.423090474470000E-002 
 6.533413877100000E-002  6.645623104320000E-002  6.759750391680000E-002  6.875828525740001E-002 
 6.993890853500000E-002  7.113971291979999E-002  7.236104337980000E-002  7.360325077950000E-002 
 7.486669198100000E-002  7.615172994659999E-002  7.745873384269999E-002  7.878807914650000E-002 
 8.014014775290000E-002  8.151532808520000E-002  8.291401520600000E-002  8.433661093120000E-002 
 8.578352394490001E-002  8.725516991720000E-002  8.875197162360000E-002  9.027435906620000E-002 
 9.182276959740000E-002  9.339764804570000E-002  9.499944684320000E-002  9.662862615560000E-002 
 9.828565401460000E-002  9.997100645230000E-002  1.016851676380000E-001  1.034286300170000E-001 
 1.052018944510000E-001  1.070054703670000E-001  1.088398758960000E-001  1.107056380270000E-001 
 1.126032927580000E-001  1.145333852480000E-001  1.164964699760000E-001  1.184931108970000E-001 
 1.205238816080000E-001  1.225893655110000E-001  1.246901559780000E-001  1.268268565260000E-001 
 1.290000809880000E-001  1.312104536900000E-001  1.334586096280000E-001  1.357451946540000E-001 
 1.380708656600000E-001  1.404362907660000E-001  1.428421495130000E-001  1.452891330570000E-001 
 1.477779443700000E-001  1.503092984400000E-001  1.528839224740000E-001  1.555025561130000E-001 
 1.581659516390000E-001  1.608748741950000E-001  1.636301020020000E-001  1.664324265820000E-001 
 1.692826529900000E-001  1.721816000410000E-001  1.751301005460000E-001  1.781290015520000E-001 
 1.811791645850000E-001  1.842814658990000E-001  1.874367967240000E-001  1.906460635260000E-001 
 1.939101882650000E-001  1.972301086600000E-001  2.006067784620000E-001  2.040411677220000E-001 
 2.075342630720000E-001  2.110870680130000E-001  2.147006031960000E-001  2.183759067190000E-001 
 2.221140344280000E-001  2.259160602120000E-001  2.297830763210000E-001  2.337161936730000E-001 
 2.377165421780000E-001  2.417852710570000E-001  2.459235491780000E-001  2.501325653880000E-001 
 2.544135288560000E-001  2.587676694200000E-001  2.631962379400000E-001  2.677005066590000E-001 
 2.722817695650000E-001  2.769413427670000E-001  2.816805648690000E-001  2.865007973600000E-001 
 2.914034249970000E-001  2.963898562120000E-001  3.014615235100000E-001  3.066198838810000E-001 
 3.118664192240000E-001  3.172026367670000E-001  3.226300695020000E-001  3.281502766240000E-001 
 3.337648439830000E-001  3.394753845350000E-001  3.452835388090000E-001  3.511909753730000E-001 
 3.571993913220000E-001  3.633105127550000E-001  3.695260952810000E-001  3.758479245150000E-001 
 3.822778165970000E-001  3.888176187110000E-001  3.954692096150000E-001  4.022345001820000E-001 
 4.091154339500000E-001  4.161139876770000E-001  4.232321719140000E-001  4.304720315750000E-001 
 4.378356465330000E-001  4.453251322130000E-001  4.529426401970000E-001  4.606903588490000E-001 
 4.685705139390000E-001  4.765853692830000E-001  4.847372273930000E-001  4.930284301410000E-001 
 5.014613594280000E-001  5.100384378720000E-001  5.187621295020000E-001  5.276349404660000E-001 
 5.366594197500000E-001  5.458381599120000E-001  5.551737978280000E-001  5.646690154450000E-001 
 5.743265405550000E-001  5.841491475790000E-001  5.941396583620000E-001  6.043009429830000E-001 
 6.146359205840000E-001  6.251475602030000E-001  6.358388816320000E-001  6.467129562790001E-001 
 6.577729080560000E-001  6.690219142740000E-001  6.804632065530000E-001  6.921000717569999E-001 
 7.039358529300000E-001  7.159739502650000E-001  7.282178220730000E-001  7.406709857820000E-001 
 7.533370189440000E-001  7.662195602670000E-001  7.793223106550000E-001  7.926490342740000E-001 
 8.062035596340000E-001  8.199897806880000E-001  8.340116579510000E-001  8.482732196370000E-001 
 8.627785628160000E-001  8.775318545930000E-001  8.925373333040000E-001  9.077993097300000E-001 
 9.233221683440000E-001  9.391103685620000E-001  9.551684460290000E-001  9.715010139190000E-001 
 9.881127642630000E-001  1.005008469300000E+000  1.022192982830000E+000  1.039671241630000E+000 
 1.057448266880000E+000  1.075529165560000E+000  1.093919131980000E+000  1.112623449200000E+000 
 1.131647490620000E+000  1.150996721480000E+000  1.170676700440000E+000  1.190693081180000E+000 
 1.211051614000000E+000  1.231758147530000E+000  1.252818630360000E+000  1.274239112750000E+000 
 1.296025748380000E+000  1.318184796150000E+000  1.340722621920000E+000  1.363645700360000E+000 
 1.386960616840000E+000  1.410674069270000E+000  1.434792870080000E+000  1.459323948130000E+000 
 1.484274350720000E+000  1.509651245620000E+000  1.535461923130000E+000  1.561713798150000E+000 
 1.588414412330000E+000  1.615571436240000E+000  1.643192671580000E+000  1.671286053390000E+000 
 1.699859652360000E+000  1.728921677120000E+000  1.758480476630000E+000  1.788544542570000E+000 
 1.819122511760000E+000  1.850223168660000E+000  1.881855447880000E+000  1.914028436770000E+000 
 1.946751378010000E+000  1.980033672250000E+000  2.013884880870000E+000  2.048314728650000E+000 
 2.083333106640000E+000  2.118950074920000E+000  2.155175865560000E+000  2.192020885540000E+000 
 2.229495719720000E+000  2.267611133890000E+000  2.306378077860000E+000  2.345807688640000E+000 
 2.385911293590000E+000  2.426700413690000E+000  2.468186766880000E+000  2.510382271380000E+000 
 2.553299049130000E+000  2.596949429310000E+000  2.641345951820000E+000  2.686501370920000E+000 
 2.732428658890000E+000  2.779141009750000E+000  2.826651843050000E+000  2.874974807750000E+000 
 2.924123786080000E+000  2.974112897610000E+000  3.024956503230000E+000  3.076669209340000E+000 
 3.129265871980000E+000  3.182761601170000E+000  3.237171765190000E+000  3.292511995020000E+000 
 3.348798188850000E+000  3.406046516610000E+000  3.464273424640000E+000  3.523495640400000E+000 
 3.583730177290000E+000  3.644994339520000E+000  3.707305727100000E+000  3.770682240890000E+000 
 3.835142087730000E+000  3.900703785700000E+000  3.967386169390000E+000  4.035208395370000E+000 
 4.104189947640000E+000  4.174350643290000E+000  4.245710638110000E+000  4.318290432440000E+000 
 4.392110877070000E+000  4.467193179180000E+000  4.543558908450000E+000  4.621230003290000E+000 
 4.700228777100000E+000  4.780577924690000E+000  4.862300528820000E+000  4.945420066820000E+000 
 5.029960417320000E+000  5.115945867120000E+000  5.203401118190000E+000  5.292351294720000E+000 
 5.382821950380000E+000  5.474839075630000E+000  5.568429105220000E+000  5.663618925750000E+000 
 5.760435883410000E+000  5.858907791850000E+000  5.959062940130000E+000  6.060930100890000E+000 
 6.164538538600000E+000  6.269918017960000E+000  6.377098812440000E+000  6.486111713030000E+000 
 6.596988037010000E+000  6.709759637010000E+000  6.824458910120000E+000  6.941118807230000E+000 
 7.059772842470000E+000  7.180455102850000E+000  7.303200258050000E+000  7.428043570360000E+000 
 7.555020904870000E+000  7.684168739700000E+000  7.815524176530000E+000  7.949124951230000E+000 
 8.085009444710000E+000  8.223216693970000E+000  8.363786403270000E+000  8.506758955570000E+000 
 8.652175424119999E+000  8.800077584260000E+000  8.950507925400000E+000  9.103509663290000E+000 
 9.259126752349999E+000  9.417403898370001E+000  9.578386571310000E+000  9.742121018370000E+000 
 9.908654277289999E+000  1.007803418990000E+001  1.025030941560000E+001  1.042552944600000E+001 
 1.060374461820000E+001  1.078500613010000E+001  1.096936605450000E+001  1.115687735460000E+001 
 1.134759389860000E+001  1.154157047580000E+001  1.173886281190000E+001  1.193952758510000E+001 
 1.214362244250000E+001  1.235120601670000E+001  1.256233794240000E+001  1.277707887370000E+001 
 1.299549050160000E+001  1.321763557140000E+001  1.344357790110000E+001  1.367338239960000E+001 
 1.390711508530000E+001  1.414484310510000E+001  1.438663475360000E+001  1.463255949290000E+001 
 1.488268797240000E+001  1.513709204910000E+001  1.539584480850000E+001  1.565902058520000E+001 
 1.592669498460000E+001  1.619894490420000E+001  1.647584855620000E+001  1.675748548970000E+001 
 1.704393661350000E+001  1.733528421950000E+001  1.763161200620000E+001  1.793300510290000E+001 
 1.823955009400000E+001  1.855133504380000E+001  1.886844952220000E+001  1.919098463010000E+001 
 1.951903302550000E+001  1.985268895040000E+001  2.019204825770000E+001  2.053720843870000E+001 
 2.088826865130000E+001  2.124532974830000E+001  2.160849430640000E+001  2.197786665580000E+001 
 2.235355291010000E+001  2.273566099650000E+001  2.312430068740000E+001  2.351958363140000E+001 
 2.392162338570000E+001  2.433053544850000E+001  2.474643729230000E+001  2.516944839770000E+001 
 2.559969028760000E+001  2.603728656210000E+001  2.648236293420000E+001  2.693504726580000E+001 
 2.739546960420000E+001  2.786376222000000E+001  2.834005964450000E+001  2.882449870870000E+001 
 2.931721858260000E+001  2.981836081510000E+001  3.032806937470000E+001  3.084649069070000E+001 
 3.137377369560000E+001  3.191006986760000E+001  3.245553327430000E+001  3.301032061650000E+001 
 3.357459127420000E+001  3.414850735120000E+001  3.473223372260000E+001  3.532593808170000E+001 
 3.592979098820000E+001  3.654396591740000E+001  3.716863930980000E+001  3.780399062210000E+001 
 3.845020237840000E+001  3.910746022280000E+001  3.977595297270000E+001  4.045587267330000E+001 
 4.114741465220000E+001  4.185077757620000E+001  4.256616350770000E+001  4.329377796330000E+001 
 4.403382997250000E+001  4.478653213800000E+001  4.555210069660000E+001  4.633075558120000E+001 
 4.712272048440000E+001  4.792822292230000E+001  4.874749430030000E+001  4.958076997900000E+001 
 5.042828934260000E+001  5.129029586680000E+001  5.216703718960000E+001  5.305876518170000E+001 
 5.396573601930000E+001  5.488821025760000E+001  5.582645290550000E+001  5.678073350210000E+001 
 5.775132619380000E+001  5.873850981290000E+001  5.974256795820000E+001  6.076378907630000E+001 
 6.180246654410000E+001  6.285889875370000E+001  6.393338919750000E+001  6.502624655580000E+001 
 6.613778478560000E+001  6.726832321000001E+001  6.841818661110000E+001  6.958770532219999E+001 
 7.077721532350000E+001  7.198705833810000E+001  7.321758193070001E+001  7.446913960670000E+001 
 7.574209091450000E+001  7.703680154830001E+001  7.835364345350000E+001  7.969299493330000E+001 
 8.105524075740000E+001
    </PP_R>
    <PP_RAB type="real" size="737" columns="4">
 5.251593594630000E-006  5.341362257940000E-006  5.432665391260000E-006  5.525529224220000E-006 
 5.619980434810000E-006  5.716046157020000E-006  5.813753988680000E-006  5.913131999360000E-006 
 6.014208738440000E-006  6.117013243320000E-006  6.221575047730000E-006  6.327924190250000E-006 
 6.436091222950000E-006  6.546107220110000E-006  6.658003787200000E-006  6.771813069940000E-006 
 6.887567763540000E-006  7.005301122070000E-006  7.125046968060000E-006  7.246839702170000E-006 
 7.370714313090000E-006  7.496706387600000E-006  7.624852120790000E-006  7.755188326450000E-006 
 7.887752447640000E-006  8.022582567480000E-006  8.159717420050000E-006  8.299196401530000E-006 
 8.441059581550000E-006  8.585347714629999E-006  8.732102251990001E-006  8.881365353349999E-006 
 9.033179899109999E-006  9.187589502650000E-006  9.344638522880000E-006  9.504372076920001E-006 
 9.666836053150000E-006  9.832077124310000E-006  1.000014276100000E-005  1.017108124510000E-005 
 1.034494168410000E-005  1.052177402470000E-005  1.070162906730000E-005  1.088455848090000E-005 
 1.107061481740000E-005  1.125985152750000E-005  1.145232297490000E-005  1.164808445320000E-005 
 1.184719220070000E-005  1.204970341720000E-005  1.225567628040000E-005  1.246516996220000E-005 
 1.267824464620000E-005  1.289496154450000E-005  1.311538291570000E-005  1.333957208260000E-005 
 1.356759345050000E-005  1.379951252540000E-005  1.403539593330000E-005  1.427531143870000E-005 
 1.451932796500000E-005  1.476751561320000E-005  1.501994568280000E-005  1.527669069220000E-005 
 1.553782439930000E-005  1.580342182260000E-005  1.607355926310000E-005  1.634831432630000E-005 
 1.662776594380000E-005  1.691199439660000E-005  1.720108133820000E-005  1.749510981760000E-005 
 1.779416430360000E-005  1.809833070860000E-005  1.840769641370000E-005  1.872235029390000E-005 
 1.904238274300000E-005  1.936788570020000E-005  1.969895267620000E-005  2.003567878000000E-005 
 2.037816074670000E-005  2.072649696460000E-005  2.108078750410000E-005  2.144113414580000E-005 
 2.180764041050000E-005  2.218041158830000E-005  2.255955476910000E-005  2.294517887350000E-005 
 2.333739468370000E-005  2.373631487580000E-005  2.414205405190000E-005  2.455472877290000E-005 
 2.497445759240000E-005  2.540136109030000E-005  2.583556190760000E-005  2.627718478200000E-005 
 2.672635658300000E-005  2.718320634910000E-005  2.764786532440000E-005  2.812046699640000E-005 
 2.860114713440000E-005  2.909004382850000E-005  2.958729752930000E-005  3.009305108810000E-005 
 3.060744979820000E-005  3.113064143630000E-005  3.166277630540000E-005  3.220400727730000E-005 
 3.275448983740000E-005  3.331438212850000E-005  3.388384499700000E-005  3.446304203850000E-005 
 3.505213964500000E-005  3.565130705300000E-005  3.626071639160000E-005  3.688054273240000E-005 
 3.751096413940000E-005  3.815216172060000E-005  3.880431967950000E-005  3.946762536860000E-005 
 4.014226934270000E-005  4.082844541400000E-005  4.152635070770000E-005  4.223618571830000E-005 
 4.295815436770000E-005  4.369246406370000E-005  4.443932575900000E-005  4.519895401280000E-005 
 4.597156705130000E-005  4.675738683150000E-005  4.755663910420000E-005  4.836955347900000E-005 
 4.919636349050000E-005  5.003730666530000E-005  5.089262459000000E-005  5.176256298090000E-005 
 5.264737175450000E-005  5.354730509930000E-005  5.446262154860000E-005  5.539358405520000E-005 
 5.634046006660000E-005  5.730352160190000E-005  5.828304533010000E-005  5.927931264940000E-005 
 6.029260976820000E-005  6.132322778700001E-005  6.237146278250000E-005  6.343761589230001E-005 
 6.452199340150000E-005  6.562490683100000E-005  6.674667302620000E-005  6.788761424910000E-005 
 6.904805826980000E-005  7.022833846150000E-005  7.142879389590000E-005  7.264976944050000E-005 
 7.389161585810001E-005  7.515468990710000E-005  7.643935444410000E-005  7.774597852850000E-005 
 7.907493752810000E-005  8.042661322710000E-005  8.180139393579999E-005  8.319967460199999E-005 
 8.462185692470000E-005  8.606834946940000E-005  8.753956778540000E-005  8.903593452530000E-005 
 9.055787956630000E-005  9.210584013369999E-005  9.368026092660000E-005  9.528159424570000E-005 
 9.691030012300000E-005  9.856684645429999E-005  1.002517091330000E-004  1.019653721880000E-004 
 1.037083279210000E-004  1.054810770510000E-004  1.072841288520000E-004  1.091180013070000E-004 
 1.109832212530000E-004  1.128803245310000E-004  1.148098561410000E-004  1.167723704020000E-004 
 1.187684311050000E-004  1.207986116800000E-004  1.228634953580000E-004  1.249636753410000E-004 
 1.270997549700000E-004  1.292723479000000E-004  1.314820782730000E-004  1.337295809030000E-004 
 1.360155014530000E-004  1.383404966250000E-004  1.407052343450000E-004  1.431103939560000E-004 
 1.455566664140000E-004  1.480447544860000E-004  1.505753729500000E-004  1.531492488060000E-004 
 1.557671214770000E-004  1.584297430280000E-004  1.611378783780000E-004  1.638923055230000E-004 
 1.666938157560000E-004  1.695432138960000E-004  1.724413185210000E-004  1.753889621990000E-004 
 1.783869917330000E-004  1.814362683970000E-004  1.845376681910000E-004  1.876920820850000E-004 
 1.909004162830000E-004  1.941635924760000E-004  1.974825481120000E-004  2.008582366630000E-004 
 2.042916278980000E-004  2.077837081650000E-004  2.113354806700000E-004  2.149479657690000E-004 
 2.186222012600000E-004  2.223592426780000E-004  2.261601636040000E-004  2.300260559690000E-004 
 2.339580303680000E-004  2.379572163820000E-004  2.420247629000000E-004  2.461618384490000E-004 
 2.503696315300000E-004  2.546493509620000E-004  2.590022262250000E-004  2.634295078150000E-004 
 2.679324676050000E-004  2.725123992090000E-004  2.771706183510000E-004  2.819084632490000E-004 
 2.867272949930000E-004  2.916284979400000E-004  2.966134801120000E-004  3.016836735970000E-004 
 3.068405349630000E-004  3.120855456770000E-004  3.174202125300000E-004  3.228460680670000E-004 
 3.283646710320000E-004  3.339776068130000E-004  3.396864878980000E-004  3.454929543380000E-004 
 3.513986742170000E-004  3.574053441360000E-004  3.635146896950000E-004  3.697284659890000E-004 
 3.760484581170000E-004  3.824764816900000E-004  3.890143833550000E-004  3.956640413250000E-004 
 4.024273659170000E-004  4.093063001050000E-004  4.163028200720000E-004  4.234189357830000E-004 
 4.306566915610000E-004  4.380181666730000E-004  4.455054759280000E-004  4.531207702850000E-004 
 4.608662374720000E-004  4.687441026100000E-004  4.767566288590000E-004  4.849061180610000E-004 
 4.931949114080000E-004  5.016253901090000E-004  5.101999760780000E-004  5.189211326270000E-004 
 5.277913651760000E-004  5.368132219700000E-004  5.459892948160000E-004  5.553222198210000E-004 
 5.648146781540000E-004  5.744693968140000E-004  5.842891494150000E-004  5.942767569820000E-004 
 6.044350887620000E-004  6.147670630470000E-004  6.252756480120000E-004  6.359638625720000E-004 
 6.468347772430000E-004  6.578915150280000E-004  6.691372523150000E-004  6.805752197870000E-004 
 6.922087033490000E-004  7.040410450770001E-004  7.160756441730000E-004  7.283159579450000E-004 
 7.407655027990000E-004  7.534278552470000E-004  7.663066529380000E-004  7.794055957020000E-004 
 7.927284466120000E-004  8.062790330640000E-004  8.200612478800000E-004  8.340790504240000E-004 
 8.483364677390000E-004  8.628375957050000E-004  8.775866002160000E-004  8.925877183750000E-004 
 9.078452597130000E-004  9.233636074270000E-004  9.391472196370000E-004  9.552006306700000E-004 
 9.715284523600000E-004  9.881353753750000E-004  1.005026170560000E-003  1.022205690320000E-003 
 1.039678869990000E-003  1.057450729280000E-003  1.075526373710000E-003  1.093910996050000E-003 
 1.112609877850000E-003  1.131628390940000E-003  1.150971998960000E-003  1.170646258970000E-003 
 1.190656823000000E-003  1.211009439690000E-003  1.231709955960000E-003  1.252764318670000E-003 
 1.274178576320000E-003  1.295958880820000E-003  1.318111489230000E-003  1.340642765570000E-003 
 1.363559182630000E-003  1.386867323850000E-003  1.410573885220000E-003  1.434685677170000E-003 
 1.459209626560000E-003  1.484152778630000E-003  1.509522299080000E-003  1.535325476070000E-003 
 1.561569722360000E-003  1.588262577420000E-003  1.615411709580000E-003  1.643024918270000E-003 
 1.671110136220000E-003  1.699675431770000E-003  1.728729011190000E-003  1.758279220990000E-003 
 1.788334550400000E-003  1.818903633710000E-003  1.849995252850000E-003  1.881618339810000E-003 
 1.913781979320000E-003  1.946495411360000E-003  1.979768033860000E-003  2.013609405410000E-003 
 2.048029247970000E-003  2.083037449710000E-003  2.118644067800000E-003  2.154859331330000E-003 
 2.191693644250000E-003  2.229157588340000E-003  2.267261926270000E-003  2.306017604670000E-003 
 2.345435757320000E-003  2.385527708270000E-003  2.426304975160000E-003  2.467779272530000E-003 
 2.509962515130000E-003  2.552866821390000E-003  2.596504516880000E-003  2.640888137880000E-003 
 2.686030434940000E-003  2.731944376560000E-003  2.778643152940000E-003  2.826140179730000E-003 
 2.874449101900000E-003  2.923583797680000E-003  2.973558382510000E-003  3.024387213120000E-003 
 3.076084891650000E-003  3.128666269850000E-003  3.182146453320000E-003  3.236540805900000E-003 
 3.291864954010000E-003  3.348134791230000E-003  3.405366482780000E-003  3.463576470230000E-003 
 3.522781476170000E-003  3.582998509070000E-003  3.644244868100000E-003  3.706538148160000E-003 
 3.769896244910000E-003  3.834337359900000E-003  3.899880005810000E-003  3.966543011790000E-003 
 4.034345528810000E-003  4.103307035240000E-003  4.173447342380000E-003  4.244786600170000E-003 
 4.317345303020000E-003  4.391144295630000E-003  4.466204779030000E-003  4.542548316630000E-003 
 4.620196840460000E-003  4.699172657440000E-003  4.779498455790000E-003  4.861197311550000E-003 
 4.944292695240000E-003  5.028808478550000E-003  5.114768941210000E-003  5.202198778020000E-003 
 5.291123105870000E-003  5.381567471010000E-003  5.473557856330000E-003  5.567120688920000E-003 
 5.662282847540000E-003  5.759071670460000E-003  5.857514963230000E-003  5.957641006700000E-003 
 6.059478565150000E-003  6.163056894530000E-003  6.268405750890000E-003  6.375555398930000E-003 