<UPF version="2.0.1">
<PP_INFO>
Generated by new atomic code, or converted to UPF format
Author:
Generation date:
Pseudopotential type: US
Element: P
Functional:  SLA  PZ   NOGX NOGC
Suggested minimum cutoff for wavefunctions:   0. Ry
Suggested minimum cutoff for charge density:   0. Ry
The Pseudo was generated with a Non-Relativistic Calculation
L component and cutoff radius for Local Potential:  0   0.0000
Valence configuration:
nl pn  l   occ       Rcut    Rcut US       E pseu
3S  0  0  2.00     10.000      1.700     0.000000
3P  0  1  3.00     10.000      1.700     0.000000
Generation configuration: not available.
</PP_INFO>
<!--
END OF HUMAN READABLE SECTION
-->
<PP_HEADER generated="Generated by new atomic code, or converted to UPF format" author="" date="" comment="" element="P " pseudo_type="US" relativistic="no" is_ultrasoft="true" is_paw="false" is_coulomb="false" has_so="false" has_wfc="false" has_gipaw="false" paw_as_gipaw="false" core_correction="false" functional=" SLA  PZ   NOGX NOGC" z_valence="5.000000000000e0" total_psenergy="-1.283143215335e1" wfc_cutoff="0.000000000000e0" rho_cutoff="0.000000000000e0" l_max="2" l_max_rho="0" l_local="0" mesh_size="807" number_of_wfc="2" number_of_proj="6"/>
<PP_MESH mesh="807" rmax="1.415942511180e2" zmesh="1.500000000000e1">
<PP_R>
0.000000000000000e0 2.824720605330000e-6 5.697725867190001e-6 8.619841144400002e-6
1.159190590410000e-5 1.461477396310000e-5 1.768931373270000e-5 2.081640846890000e-5
2.399695652530000e-5 2.723187161200000e-5 3.052208305730000e-5 3.386853607550000e-5
3.727219203759999e-5 4.073402874830000e-5 4.425504072609999e-5 4.783623948970000e-5
5.147865384820001e-5 5.518333019680001e-5 5.895133281720000e-5 6.278374418380000e-5
6.668166527409999e-5 7.064621588540000e-5 7.467853495650001e-5 7.877978089450000e-5
8.295113190810000e-5 8.719378634569999e-5 9.150896303980000e-5 9.589790165710001e-5
1.003618630550000e-4 1.049021296430000e-4 1.095200057510000e-4 1.142168180080000e-4
1.189939157140000e-4 1.238526712390000e-4 1.287944804090000e-4 1.338207629090000e-4
1.389329626950000e-4 1.441325484000000e-4 1.494210137670000e-4 1.547998780690000e-4
1.602706865490000e-4 1.658350108650000e-4 1.714944495400000e-4 1.772506284200000e-4
1.831052011450000e-4 1.890598496190000e-4 1.951162844990000e-4 2.012762456810000e-4
2.075415028030000e-4 2.139138557510000e-4 2.203951351790000e-4 2.269872030340000e-4
2.336919530890000e-4 2.405113114880000e-4 2.474472373030000e-4 2.545017230890000e-4
2.616767954650000e-4 2.689745156890000e-4 2.763969802550000e-4 2.839463214950000e-4
2.916247081870000e-4 2.994343461830001e-4 3.073774790420000e-4 3.154563886710000e-4
3.236733959850000e-4 3.320308615720000e-4 3.405311863690000e-4 3.491768123560001e-4
3.579702232519999e-4 3.669139452360000e-4 3.760105476650000e-4 3.852626438170001e-4
3.946728916410000e-4 4.042439945180000e-4 4.139787020409999e-4 4.238798108039999e-4
4.339501652020000e-4 4.441926582550000e-4 4.546102324320000e-4 4.652058805010000e-4
4.759826463850001e-4 4.869436260430000e-4 4.980919683500000e-4 5.094308760110000e-4
5.209636064730000e-4 5.326934728669999e-4 5.446238449570000e-4 5.567581501070000e-4
5.690998742690000e-4 5.816525629819999e-4 5.944198223890000e-4 6.074053202780000e-4
6.206127871300000e-4 6.340460171959999e-4 6.477088695820000e-4 6.616052693609999e-4
6.757392087010000e-4 6.901147480080000e-4 7.047360170970000e-4 7.196072163760001e-4
7.347326180520000e-4 7.501165673600001e-4 7.657634838110000e-4 7.816778624620000e-4
7.978642752060000e-4 8.143273720860000e-4 8.310718826310001e-4 8.481026172140000e-4
8.654244684380002e-4 8.830424125330000e-4 9.009615107940000e-4 9.191869110330000e-4
9.377238490520002e-4 9.565776501569999e-4 9.757537306789999e-4 9.952575995350001e-4
1.015094859810000e-3 1.035271210360000e-3 1.055792447470000e-3 1.076664466490000e-3
1.097893263540000e-3 1.119484937250000e-3 1.141445690490000e-3 1.163781832160000e-3
1.186499778990000e-3 1.209606057430000e-3 1.233107305440000e-3 1.257010274490000e-3
1.281321831440000e-3 1.306048960520000e-3 1.331198765370000e-3 1.356778471030000e-3
1.382795426060000e-3 1.409257104620000e-3 1.436171108650000e-3 1.463545170020000e-3
1.491387152760000e-3 1.519705055350000e-3 1.548507012950000e-3 1.577801299830000e-3
1.607596331650000e-3 1.637900667960000e-3 1.668723014610000e-3 1.700072226260000e-3
1.731957308930000e-3 1.764387422590000e-3 1.797371883780000e-3 1.830920168300000e-3
1.865041913920000e-3 1.899746923170000e-3 1.935045166110000e-3 1.970946783260000e-3
2.007462088440000e-3 2.044601571810000e-3 2.082375902810000e-3 2.120795933280000e-3
2.159872700560000e-3 2.199617430630000e-3 2.240041541400000e-3 2.281156645920000e-3
2.322974555770000e-3 2.365507284440000e-3 2.408767050730000e-3 2.452766282360000e-3
2.497517619450000e-3 2.543033918190000e-3 2.589328254540000e-3 2.636413927950000e-3
2.684304465240000e-3 2.733013624430000e-3 2.782555398710000e-3 2.832944020490000e-3
2.884193965430000e-3 2.936319956650000e-3 2.989336968950001e-3 3.043260233080000e-3
3.098105240150000e-3 3.153887746080000e-3 3.210623776100000e-3 3.268329629360000e-3
3.327021883660000e-3 3.386717400130000e-3 3.447433328140001e-3 3.509187110200001e-3
3.571996486990000e-3 3.635879502410000e-3 3.700854508829999e-3 3.766940172300000e-3
3.834155477960000e-3 3.902519735460000e-3 3.972052584530000e-3 4.042774000620001e-3
4.114704300619999e-3 4.187864148699999e-3 4.262274562290000e-3 4.337956918050001e-3
4.414932958060000e-3 4.493224796040001e-3 4.572854923730000e-3 4.653846217320000e-3
4.736221944040000e-3 4.820005768840000e-3 4.905221761200000e-3 4.991894402020000e-3
5.080048590670000e-3 5.169709652150001e-3 5.260903344340000e-3 5.353655865430000e-3
5.447993861420000e-3 5.543944433790000e-3 5.641535147290000e-3 5.740794037830001e-3
5.841749620590000e-3 5.944430898129999e-3 6.048867368810001e-3 6.155089035200000e-3
6.263126412740000e-3 6.373010538470001e-3 6.484772979970000e-3 6.598445844430001e-3
6.714061787860000e-3 6.831654024500001e-3 6.951256336300000e-3 7.072903082710001e-3
7.196629210470000e-3 7.322470263720000e-3 7.450462394140001e-3 7.580642371410001e-3
7.713047593710000e-3 7.847716098489999e-3 7.984686573419999e-3 8.123998367470000e-3
8.265691502200001e-3 8.409806683319999e-3 8.556385312340000e-3 8.705469498450000e-3
8.857102070660000e-3 9.011326590070000e-3 9.168187362410000e-3 9.327729450730001e-3
9.489998688389999e-3 9.655041692200001e-3 9.822905875830001e-3 9.993639463399999e-3
1.016729150340000e-2 1.034391188260000e-2 1.052355134080000e-2 1.070626148470000e-2
1.089209480360000e-2 1.108110468370000e-2 1.127334542390000e-2 1.146887225130000e-2
1.166774133700000e-2 1.187000981210000e-2 1.207573578450000e-2 1.228497835530000e-2
1.249779763580000e-2 1.271425476480000e-2 1.293441192650000e-2 1.315833236750000e-2
1.338608041600000e-2 1.361772149950000e-2 1.385332216410000e-2 1.409295009320000e-2
1.433667412730000e-2 1.458456428370000e-2 1.483669177630000e-2 1.509312903650000e-2
1.535394973390000e-2 1.561922879700000e-2 1.588904243550000e-2 1.616346816150000e-2
1.644258481240000e-2 1.672647257290000e-2 1.701521299840000e-2 1.730888903860000e-2
1.760758506080000e-2 1.791138687460000e-2 1.822038175650000e-2 1.853465847460000e-2
1.885430731460000e-2 1.917942010540000e-2 1.951009024570000e-2 1.984641273050000e-2
2.018848417880000e-2 2.053640286110000e-2 2.089026872770000e-2 2.125018343750000e-2
2.161625038690000e-2 2.198857474000000e-2 2.236726345820000e-2 2.275242533160000e-2
2.314417100960000e-2 2.354261303329999e-2 2.394786586730000e-2 2.436004593300000e-2
2.477927164160000e-2 2.520566342860000e-2 2.563934378820000e-2 2.608043730820000e-2
2.652907070640000e-2 2.698537286640001e-2 2.744947487500000e-2 2.792151005980000e-2
2.840161402720000e-2 2.888992470190000e-2 2.938658236610000e-2 2.989172970000000e-2
3.040551182250000e-2 3.092807633340000e-2 3.145957335520000e-2 3.200015557690000e-2
3.254997829730000e-2 3.310919946970000e-2 3.367797974760000e-2 3.425648253050000e-2
3.484487401120000e-2 3.544332322300000e-2 3.605200208900000e-2 3.667108547060000e-2
3.730075121870000e-2 3.794118022390000e-2 3.859255646920000e-2 3.925506708240000e-2
3.992890238990000e-2 4.061425597150000e-2 4.131132471610000e-2 4.202030887810000e-2
4.274141213490000e-2 4.347484164540000e-2 4.422080810990000e-2 4.497952583000000e-2
4.575121277060000e-2 4.653609062250000e-2 4.733438486590000e-2 4.814632483530001e-2
4.897214378530000e-2 4.981207895770000e-2 5.066637164969999e-2 5.153526728299999e-2
5.241901547449999e-2 5.331787010790000e-2 5.423208940689999e-2 5.516193600879999e-2
5.610767704080000e-2 5.706958419580000e-2 5.804793381110001e-2 5.904300694769999e-2
6.005508947090000e-2 6.108447213229999e-2 6.213145065370000e-2 6.319632581170000e-2
6.427940352439999e-2 6.538099493910000e-2 6.650141652160001e-2 6.764099014730000e-2
6.880004319379999e-2 6.997890863450000e-2 7.117792513470000e-2 7.239743714860001e-2
7.363779501850000e-2 7.489935507499999e-2 7.618247974010001e-2 7.748753763049999e-2
7.881490366430000e-2 8.016495916789999e-2 8.153809198610000e-2 8.293469659359999e-2
8.435517420770001e-2 8.579993290410000e-2 8.726938773420001e-2 8.876396084370000e-2
9.028408159480000e-2 9.183018668860001e-2 9.340272029120001e-2 9.500213416099999e-2
9.662888777890000e-2 9.828344847950000e-2 9.996629158610000e-2 1.016779005470000e-1
1.034187670740000e-1 1.051893912860000e-1 1.069902818460000e-1 1.088219561180000e-1
1.106849403050000e-1 1.125797696070000e-1 1.145069883710000e-1 1.164671502500000e-1
1.184608183610000e-1 1.204885654460000e-1 1.225509740380000e-1 1.246486366260000e-1
1.267821558280000e-1 1.289521445640000e-1 1.311592262280000e-1 1.334040348740000e-1
1.356872153900000e-1 1.380094236910000e-1 1.403713269020000e-1 1.427736035510000e-1
1.452169437680000e-1 1.477020494760000e-1 1.502296345970000e-1 1.528004252580000e-1
1.554151599990000e-1 1.580745899800000e-1 1.607794792050000e-1 1.635306047370000e-1
1.663287569200000e-1 1.691747396090000e-1 1.720693704010000e-1 1.750134808660000e-1
1.780079167910000e-1 1.810535384190000e-1 1.841512206980000e-1 1.873018535320000e-1
1.905063420380000e-1 1.937656068030000e-1 1.970805841500000e-1 2.004522264080000e-1
2.038815021850000e-1 2.073693966460000e-1 2.109169117950000e-1 2.145250667640000e-1
2.181948981070000e-1 2.219274600950000e-1 2.257238250210000e-1 2.295850835070000e-1
2.335123448180000e-1 2.375067371800000e-1 2.415694081050000e-1 2.457015247200000e-1
2.499042741010000e-1 2.541788636180000e-1 2.585265212760000e-1 2.629484960750000e-1
2.674460583620000e-1 2.720205001980000e-1 2.766731357340000e-1 2.814053015820000e-1
2.862183572000000e-1 2.911136852860000e-1 2.960926921750000e-1 3.011568082370000e-1
3.063074882960000e-1 3.115462120420000e-1 3.168744844600000e-1 3.222938362580000e-1
3.278058243110000e-1 3.334120321080000e-1 3.391140702040000e-1 3.449135766820000e-1
3.508122176300000e-1 3.568116876130000e-1 3.629137101620000e-1 3.691200382700000e-1
3.754324548960000e-1 3.818527734750000e-1 3.883828384390000e-1 3.950245257500000e-1
4.017797434370000e-1 4.086504321420000e-1 4.156385656820000e-1 4.227461516130000e-1
4.299752318050000e-1 4.373278830340000e-1 4.448062175740001e-1 4.524123838070000e-1
4.601485668350000e-1 4.680169891170000e-1 4.760199110950000e-1 4.841596318560000e-1
4.924384897840000e-1 5.008588632330000e-1 5.094231712150000e-1 5.181338740900000e-1
5.269934742740000e-1 5.360045169580000e-1 5.451695908400001e-1 5.544913288700000e-1
5.639724090020000e-1 5.736155549670000e-1 5.834235370540000e-1 5.933991729070000e-1
6.035453283330000e-1 6.138649181250000e-1 6.243609069030000e-1 6.350363099600001e-1
6.458941941350000e-1 6.569376786849999e-1 6.681699361920001e-1 6.795941934650001e-1
6.912137324720000e-1 7.030318912820000e-1 7.150520650230000e-1 7.272777068589999e-1
7.397123289790000e-1 7.523595036110001e-1 7.652228640430000e-1 7.783061056690000e-1
7.916129870510000e-1 8.051473310000000e-1 8.189130256689999e-1 8.329140256780001e-1
8.471543532409999e-1 8.616380993300000e-1 8.763694248450001e-1 8.913525618100000e-1
9.065918145910000e-1 9.220915611310000e-1 9.378562542050000e-1 9.538904227069999e-1
9.701986729410001e-1 9.867856899530000e-1 1.003656238870000e0 1.020815166280000e0
1.038267401600000e0 1.056017958540000e0 1.074071936460000e0 1.092434521950000e0
1.111110990210000e0 1.130106706620000e0 1.149427128300000e0 1.169077805620000e0
1.189064383850000e0 1.209392604740000e0 1.230068308190000e0 1.251097433940000e0
1.272486023250000e0 1.294240220640000e0 1.316366275670000e0 1.338870544730000e0
1.361759492870000e0 1.385039695630000e0 1.408717840970000e0 1.432800731160000e0
1.457295284740000e0 1.482208538530000e0 1.507547649630000e0 1.533319897460000e0
1.559532685910000e0 1.586193545390000e0 1.613310135060000e0 1.640890244980000e0
1.668941798390000e0 1.697472853960000e0 1.726491608100000e0 1.756006397340000e0
1.786025700720000e0 1.816558142190000e0 1.847612493140000e0 1.879197674880000e0
1.911322761220000e0 1.943996981070000e0 1.977229721120000e0 2.011030528470000e0
2.045409113460000e0 2.080375352370000e0 2.115939290340000e0 2.152111144200000e0
2.188901305410000e0 2.226320343090000e0 2.264379006990000e0 2.303088230640000e0
2.342459134440000e0 2.382503028900000e0 2.423231417840000e0 2.464656001760000e0
2.506788681120000e0 2.549641559830000e0 2.593226948710000e0 2.637557368970000e0
2.682645555900000e0 2.728504462470000e0 2.775147263040000e0 2.822587357180000e0
2.870838373530000e0 2.919914173670000e0 2.969828856120000e0 3.020596760400000e0
3.072232471150000e0 3.124750822320000e0 3.178166901400000e0 3.232496053810000e0
3.287753887260000e0 3.343956276240000e0 3.401119366640000e0 3.459259580280000e0
3.518393619740000e0 3.578538473070000e0 3.639711418730000e0 3.701930030520000e0
3.765212182650000e0 3.829576054850000e0 3.895040137620000e0 3.961623237530000e0
4.029344482600000e0 4.098223327840000e0 4.168279560820000e0 4.239533307320000e0
4.312005037180000e0 4.385715570120000e0 4.460686081750000e0 4.536938109640000e0
4.614493559530000e0 4.693374711600000e0 4.773604226880000e0 4.855205153750000e0
4.938200934590000e0 5.022615412460000e0 5.108472838030000e0 5.195797876460000e0
5.284615614560000e0 5.374951567930000e0 5.466831688350000e0 5.560282371190000e0
5.655330463050000e0 5.752003269380000e0 5.850328562410000e0 5.950334589110000e0
6.052050079260000e0 6.155504253770000e0 6.260726833000000e0 6.367748045370000e0
6.476598636020000e0 6.587309875590000e0 6.699913569290000e0 6.814442065990000e0
6.930928267500000e0 7.049405638060000e0 7.169908213920000e0 7.292470613130000e0
7.417128045510000e0 7.543916322730000e0 7.672871868590000e0 7.804031729540000e0
7.937433585270000e0 8.073115759540000e0 8.211117231219999e0 8.351477645459999e0
8.494237325100000e0 8.639437282219999e0 8.787119229960000e0 8.937325594490000e0
9.090099527200000e0 9.245484917070000e0 9.403526403330000e0 9.564269388220000e0
9.727760050110000e0 9.894045356690000e0 1.006317307850000e1 1.023519180270000e1
1.041015094690000e1 1.058810077350000e1 1.076909240410000e1 1.095317783400000e1
1.114040994740000e1 1.133084253240000e1 1.152453029680000e1 1.172152888310000e1
1.192189488540000e1 1.212568586480000e1 1.233296036660000e1 1.254377793670000e1
1.275819913900000e1 1.297628557250000e1 1.319809988920000e1 1.342370581210000e1
1.365316815340000e1 1.388655283310000e1 1.412392689830000e1 1.436535854180000e1
1.461091712230000e1 1.486067318400000e1 1.511469847700000e1 1.537306597790000e1
1.563584991070000e1 1.590312576800000e1 1.617497033310000e1 1.645146170170000e1
1.673267930430000e1 1.701870392940000e1 1.730961774630000e1 1.760550432880000e1
1.790644867960000e1 1.821253725400000e1 1.852385798540000e1 1.884050031020000e1
1.916255519370000e1 1.949011515590000e1 1.982327429860000e1 2.016212833180000e1
2.050677460180000e1 2.085731211880000e1 2.121384158550000e1 2.157646542580000e1
2.194528781450000e1 2.232041470730000e1 2.270195387080000e1 2.309001491370000e1
2.348470931870000e1 2.388615047360000e1 2.429445370490000e1 2.470973631000000e1
2.513211759170000e1 2.556171889190000e1 2.599866362680000e1 2.644307732210000e1
2.689508764940000e1 2.735482446230000e1 2.782241983440001e1 2.829800809690000e1
2.878172587690000e1 2.927371213740000e1 2.977410821630000e1 3.028305786780000e1
3.080070730330000e1 3.132720523350000e1 3.186270291100000e1 3.240735417400000e1
3.296131549020000e1 3.352474600200000e1 3.409780757200000e1 3.468066482980000e1
3.527348521900000e1 3.587643904540000e1 3.648969952590000e1 3.711344283850000e1
3.774784817250000e1 3.839309778030001e1 3.904937702970000e1 3.971687445690000e1
4.039578182100001e1 4.108629415910000e1 4.178860984190000e1 4.250293063110000e1
4.322946173730000e1 4.396841187880000e1 4.471999334170000e1 4.548442204070000e1
4.626191758160000e1 4.705270332360000e1 4.785700644420000e1 4.867505800420000e1
4.950709301400000e1 5.035335050100000e1 5.121407357870001e1 5.208950951620000e1
5.297990980930000e1 5.388553025270000e1 5.480663101370000e1 5.574347670670001e1
5.669633646940000e1 5.766548403990001e1 5.865119783550000e1 5.965376103280001e1
6.067346164880000e1 6.171059262370001e1 6.276545190520000e1 6.383834253390000e1
6.492957273060000e1 6.603945598460000e1 6.716831114380000e1 6.831646250650000e1
6.948423991440001e1 7.067197884730000e1 7.188002051960000e1 7.310871197840000e1
7.435840620290000e1 7.562946220610001e1 7.692224513770000e1 7.823712638930001e1
7.957448370090001e1 8.093470126920002e1 8.231816985860000e1 8.372528691270000e1
8.515645666899999e1 8.661209027500000e1 8.809260590600001e1 8.959842888540001e1
9.112999180710000e1 9.268773465950000e1 9.427210495200001e1 9.588355784350000e1
9.752255627309999e1 9.918957109350002e1 1.008850812060000e2 1.026095736970000e2
1.043635439810000e2 1.061474959390000e2 1.079619420660000e2 1.098074036170000e2
1.116844107580000e2 1.135935027160000e2 1.155352279370000e2 1.175101442410000e2
1.195188189830000e2 1.215618292160000e2 1.236397618580000e2 1.257532138580000e2
1.279027923710000e2 1.300891149280000e2 1.323128096180000e2 1.345745152660000e2
1.368748816150000e2 1.392145695170000e2 1.415942511180000e2
</PP_R>
<PP_RAB>
2.800849917140000e-6 2.848726537570000e-6 2.897421542000000e-6 2.946948919580000e-6
2.997322898560000e-6 3.048557950410000e-6 3.100668793960000e-6 3.153670399660000e-6
3.207577993840000e-6 3.262407063100000e-6 3.318173358790000e-6 3.374892901470000e-6
3.432581985570000e-6 3.491257184060000e-6 3.550935353169999e-6 3.611633637300000e-6
3.673369473889999e-6 3.736160598440000e-6 3.800025049630000e-6 3.864981174490000e-6
3.931047633650000e-6 3.998243406720000e-6 4.066587797760000e-6 4.136100440770001e-6
4.206801305409999e-6 4.278710702660000e-6 4.351849290690001e-6 4.426238080820001e-6
4.501898443489999e-6 4.578852114470000e-6 4.657121201060001e-6 4.736728188450000e-6
4.817695946189999e-6 4.900047734750000e-6 4.983807212200000e-6 5.068998441030002e-6
5.155645895009998e-6 5.243774466299999e-6 5.333409472520000e-6 5.424576664070000e-6
5.517302231530000e-6 5.611612813160001e-6 5.707535502550000e-6 5.805097856460000e-6
5.904327902640000e-6 6.005254147970000e-6 6.107905586620000e-6 6.212311708350001e-6
6.318502507009999e-6 6.426508489180001e-6 6.536360682880002e-6 6.648090646520001e-6
6.761730477960002e-6 6.877312823720000e-6 6.994870888370002e-6 7.114438444070002e-6
7.236049840260001e-6 7.359740013549999e-6 7.485544497730000e-6 7.613499433990000e-6
7.743641581320000e-6 7.876008327019999e-6 8.010637697500000e-6 8.147568369189999e-6
8.286839679600002e-6 8.428491638699999e-6 8.572564940349999e-6 8.719100974010003e-6
8.868141836669999e-6 9.019730344870000e-6 9.173910047049999e-6 9.330725236080001e-6
9.490220961900000e-6 9.652443044560000e-6 9.817438087330000e-6 9.985253490079998e-6
1.015593746290000e-5 1.032953904010000e-5 1.050610809390000e-5 1.068569534930000e-5
1.086835239820000e-5 1.105413171450000e-5 1.124308666880000e-5 1.143527154440000e-5
1.163074155230000e-5 1.182955284710000e-5 1.203176254350000e-5 1.223742873250000e-5
1.244661049800000e-5 1.265936793380000e-5 1.287576216100000e-5 1.309585534560000e-5
1.331971071600000e-5 1.354739258150000e-5 1.377896635070000e-5 1.401449855040000e-5
1.425405684430000e-5 1.449771005290000e-5 1.474552817300000e-5 1.499758239810000e-5
1.525394513830000e-5 1.551469004190000e-5 1.577989201560000e-5 1.604962724700000e-5
1.632397322570000e-5 1.660300876610000e-5 1.688681402950000e-5 1.717547054790000e-5
1.746906124660000e-5 1.776767046850000e-5 1.807138399840000e-5 1.838028908720000e-5
1.869447447730000e-5 1.901403042830000e-5 1.933904874220000e-5 1.966962279060000e-5
2.000584754100000e-5 2.034781958430000e-5 2.069563716240000e-5 2.104940019660000e-5
2.140921031610000e-5 2.177517088750000e-5 2.214738704410000e-5 2.252596571640000e-5
2.291101566279999e-5 2.330264750060000e-5 2.370097373820000e-5 2.410610880680000e-5
2.451816909410001e-5 2.493727297680000e-5 2.536354085560000e-5 2.579709518880000e-5
2.623806052830000e-5 2.668656355480000e-5 2.714273311460000e-5 2.760670025650000e-5
2.807859826910000e-5 2.855856271960000e-5 2.904673149260000e-5 2.954324482940000e-5
3.004824536880000e-5 3.056187818770000e-5 3.108429084269999e-5 3.161563341300000e-5
3.215605854299999e-5 3.270572148640000e-5 3.326478015060000e-5 3.383339514250000e-5
3.441172981419999e-5 3.499995030990000e-5 3.559822561400000e-5 3.620672759950000e-5
3.682563107720000e-5 3.745511384610000e-5 3.809535674450000e-5 3.874654370160000e-5
3.940886179100000e-5 4.008250128380000e-5 4.076765570349999e-5 4.146452188190000e-5
4.217330001500000e-5 4.289419372109999e-5 4.362741009910000e-5 4.437315978770000e-5
4.513165702650000e-5 4.590311971700000e-5 4.668776948560000e-5 4.748583174680000e-5
4.829753576870001e-5 4.912311473790000e-5 4.996280582750000e-5 5.081685026439999e-5
5.168549339890001e-5 5.256898477560000e-5 5.346757820440001e-5 5.438153183370000e-5
5.531110822480000e-5 5.625657442700001e-5 5.721820205439999e-5 5.819626736399998e-5
5.919105133510000e-5 6.020283974980000e-5 6.123192327540002e-5 6.227859754770000e-5
6.334316325590001e-5 6.442592622920000e-5 6.552719752440001e-5 6.664729351540000e-5
6.778653598419998e-5 6.894525221309999e-5 7.012377507869999e-5 7.132244314800001e-5
7.254160077500000e-5 7.378159820030000e-5 7.504279165090000e-5 7.632554344339999e-5
7.763022208760001e-5 7.895720239239999e-5 8.030686557360001e-5 8.167959936319999e-5
8.307579812120000e-5 8.449586294830002e-5 8.594020180190000e-5 8.740922961240001e-5
8.890336840310001e-5 9.042304741120001e-5 9.196870321100000e-5 9.354077983970001e-5
9.513972892420000e-5 9.676600981189999e-5 9.842008970169999e-5 1.001024437790000e-4
1.018135553510000e-4 1.035539159870000e-4 1.053240256600000e-4 1.071243928870000e-4
1.089555348790000e-4 1.108179776880000e-4 1.127122563570000e-4 1.146389150770000e-4
1.165985073390000e-4 1.185915960950000e-4 1.206187539220000e-4 1.226805631830000e-4
1.247776161960000e-4 1.269105154040000e-4 1.290798735470000e-4 1.312863138390000e-4
1.335304701490000e-4 1.358129871800000e-4 1.381345206530000e-4 1.404957375010000e-4
1.428973160560000e-4 1.453399462450000e-4 1.478243297870000e-4 1.503511803990000e-4
1.529212239960000e-4 1.555351989010000e-4 1.581938560600000e-4 1.608979592510000e-4
1.636482853140000e-4 1.664456243610000e-4 1.692907800160000e-4 1.721845696360000e-4
1.751278245510000e-4 1.781213903000000e-4 1.811661268790000e-4 1.842629089800000e-4
1.874126262490000e-4 1.906161835390000e-4 1.938745011710000e-4 1.971885151940000e-4
2.005591776620000e-4 2.039874569010000e-4 2.074743377900000e-4 2.110208220400000e-4
2.146279284890000e-4 2.182966933890000e-4 2.220281707050000e-4 2.258234324170000e-4
2.296835688320000e-4 2.336096888920000e-4 2.376029204950000e-4 2.416644108190000e-4
2.457953266520000e-4 2.499968547260000e-4 2.542702020580001e-4 2.586165962990000e-4
2.630372860840000e-4 2.675335413910001e-4 2.721066539080001e-4 2.767579374009999e-4
2.814887280939999e-4 2.863003850510000e-4 2.911942905690000e-4 2.961718505710000e-4
3.012344950150000e-4 3.063836783009999e-4 3.116208796880000e-4 3.169476037239999e-4
3.223653806729999e-4 3.278757669580000e-4 3.334803456070000e-4 3.391807267050000e-4
3.449785478630000e-4 3.508754746820000e-4 3.568732012350000e-4 3.629734505530000e-4
3.691779751189999e-4 3.754885573740000e-4 3.819070102260000e-4 3.884351775710000e-4
3.950749348260000e-4 4.018281894650000e-4 4.086968815670000e-4 4.156829843750000e-4
4.227885048599999e-4 4.300154843010001e-4 4.373659988689999e-4 4.448421602260000e-4
4.524461161280000e-4 4.601800510429999e-4 4.680461867820000e-4 4.760467831330001e-4
4.841841385140000e-4 4.924605906280000e-4 5.008785171400000e-4 5.094403363569999e-4
5.181485079250001e-4 5.270055335329999e-4 5.360139576330001e-4 5.451763681700000e-4
5.544953973290000e-4 5.639737222850000e-4 5.736140659780000e-4 5.834191978920000e-4
5.933919348520000e-4 6.035351418329999e-4 6.138517327810002e-4 6.243446714529998e-4
6.350169722669998e-4 6.458717011699999e-4 6.569119765139999e-4 6.681409699570001e-4
6.795619073719999e-4 6.911780697729998e-4 7.029927942580000e-4 7.150094749700000e-4
7.272315640680000e-4 7.396625727210003e-4 7.523060721190000e-4 7.651656944930001e-4
7.782451341649999e-4 7.915481486040000e-4 8.050785595089998e-4 8.188402539049999e-4
8.328371852610001e-4 8.470733746240001e-4 8.615529117760000e-4 8.762799564080000e-4
8.912587393150000e-4 9.064935636110000e-4 9.219888059660001e-4 9.377489178640001e-4
9.537784268789999e-4 9.700819379810000e-4 9.866641348510001e-4 1.003529781230000e-3
1.020683722300000e-3 1.038130886060000e-3 1.055876284730000e-3 1.073925016220000e-3
1.092282265590000e-3 1.110953306510000e-3 1.129943502820000e-3 1.149258310040000e-3
1.168903276930000e-3 1.188884047110000e-3 1.209206360680000e-3 1.229876055830000e-3
1.250899070570000e-3 1.272281444410000e-3 1.294029320090000e-3 1.316148945350000e-3
1.338646674740000e-3 1.361528971410000e-3 1.384802409000000e-3 1.408473673540000e-3
1.432549565300000e-3 1.457037000830000e-3 1.481943014900000e-3 1.507274762520000e-3
1.533039521020000e-3 1.559244692100000e-3 1.585897804000000e-3 1.613006513660000e-3
1.640578608880000e-3 1.668622010590000e-3 1.697144775110000e-3 1.726155096480000e-3
1.755661308810000e-3 1.785671888660000e-3 1.816195457480000e-3 1.847240784120000e-3
1.878816787290000e-3 1.910932538170000e-3 1.943597262990000e-3 1.976820345690000e-3
2.010611330620000e-3 2.044979925280000e-3 2.079936003100000e-3 2.115489606290000e-3
2.151650948700000e-3 2.188430418790000e-3 2.225838582600000e-3 2.263886186760000e-3
2.302584161610000e-3 2.341943624340000e-3 2.381975882150000e-3 2.422692435530000e-3
2.464104981580000e-3 2.506225417300000e-3 2.549065843090000e-3 2.592638566160000e-3
2.636956104130000e-3 2.682031188560000e-3 2.727876768650000e-3 2.774506014950000e-3
2.821932323130000e-3 2.870169317870000e-3 2.919230856710000e-3 2.969131034090000e-3
3.019884185360000e-3 3.071504890910000e-3 3.124007980390000e-3 3.177408536910000e-3
3.231721901410000e-3 3.286963677080000e-3 3.343149733810000e-3 3.400296212760000e-3
3.458419531020001e-3 3.517536386290000e-3 3.577663761690000e-3 3.638818930659999e-3
3.701019461890000e-3 3.764283224400000e-3 3.828628392640000e-3 3.894073451720001e-3
3.960637202760000e-3 4.028338768220000e-3 4.097197597460001e-3 4.167233472290000e-3
4.238466512650001e-3 4.310917182420000e-3 4.384606295280000e-3 4.459555020680000e-3
4.535784889940000e-3 4.613317802430000e-3 4.692176031860001e-3 4.772382232660000e-3
4.853959446520000e-3 4.936931109010001e-3 5.021321056270001e-3 5.107153531900001e-3
5.194453193920000e-3 5.283245121820000e-3 5.373554823810000e-3 5.465408244120001e-3
5.558831770450000e-3 5.653852241589999e-3 5.750496955060001e-3 5.848793675040000e-3
5.948770640260000e-3 6.050456572170000e-3 6.153880683170000e-3 6.259072685010000e-3
6.366062797310001e-3 6.474881756270000e-3 6.585560823460001e-3 6.698131794840000e-3
6.812627009869999e-3 6.929079360810000e-3 7.047522302160001e-3 7.167989860300001e-3
7.290516643220001e-3 7.415137850490000e-3 7.541889283380000e-3 7.670807355110000e-3
7.801929101370000e-3 7.935292190880000e-3 8.070934936280000e-3 8.208896305110001e-3
8.349215931000000e-3 8.491934125059998e-3 8.637091887470000e-3 8.784730919240001e-3
8.934893634210001e-3 9.087623171230000e-3 9.242963406530000e-3 9.400958966360001e-3
9.561655239790001e-3 9.725098391740000e-3 9.891335376259999e-3 1.006041395000000e-2
1.023238268610000e-2 1.040729098760000e-2 1.058518910250000e-2 1.076612813740000e-2
1.095016007250000e-2 1.113733777680000e-2 1.132771502270000e-2 1.152134650190000e-2
1.171828784100000e-2 1.191859561740000e-2 1.212232737570000e-2 1.232954164410000e-2
1.254029795130000e-2 1.275465684330000e-2 1.297267990150000e-2 1.319442975960000e-2
1.341997012200000e-2 1.364936578210000e-2 1.388268264090000e-2 1.411998772580000e-2
1.436134920990000e-2 1.460683643180000e-2 1.485651991510000e-2 1.511047138910000e-2
1.536876380910000e-2 1.563147137760000e-2 1.589866956530000e-2 1.617043513310000e-2
1.644684615400000e-2 1.672798203560000e-2 1.701392354270000e-2 1.730475282080000e-2
1.760055341950000e-2 1.790141031660000e-2 1.820740994250000e-2 1.851864020500000e-2
1.883519051440000e-2 1.915715180960000e-2 1.948461658380000e-2 1.981767891130000e-2
2.015643447450000e-2 2.050098059130000e-2 2.085141624300000e-2 2.120784210320000e-2
2.157036056600000e-2 2.193907577600000e-2 2.231409365790000e-2 2.269552194710000e-2
2.308347022060000e-2 2.347804992840000e-2 2.387937442570000e-2 2.428755900510000e-2
2.470272093020000e-2 2.512497946910000e-2 2.555445592840000e-2 2.599127368830000e-2
2.643555823820000e-2 2.688743721250000e-2 2.734704042720000e-2 2.781449991740000e-2
2.828994997520000e-2 2.877352718820000e-2 2.926537047870000e-2 2.976562114390000e-2
3.027442289600000e-2 3.079192190410000e-2 3.131826683540000e-2 3.185360889870000e-2
3.239810188750000e-2 3.295190222410000e-2 3.351516900450000e-2 3.408806404440000e-2
3.467075192540000e-2 3.526340004260000e-2 3.586617865230000e-2 3.647926092100000e-2
3.710282297550000e-2 3.773704395310000e-2 3.838210605310000e-2 3.903819458950000e-2
3.970549804380000e-2 4.038420811930000e-2 4.107451979640000e-2 4.177663138810000e-2
4.249074459770000e-2 4.321706457590000e-2 4.395579998050000e-2 4.470716303590000e-2