<UPF version="2.0.1">
  <PP_INFO>
    Generated by new atomic code, or converted to UPF format
    Author: 
    Generation date: 
    Pseudopotential type: US
    Element: p
    Functional:  SLA  PZ   NOGX NOGC

    Suggested minimum cutoff for wavefunctions:   0. Ry
    Suggested minimum cutoff for charge density:   0. Ry
    The Pseudo was generated with a Non-Relativistic Calculation
    L component and cutoff radius for Local Potential:  0   0.0000

    Valence configuration: 
    nl pn  l   occ       Rcut    Rcut US       E pseu
    3S  0  0  2.00      0.800      1.700     0.000000
    3P  0  1  3.00      0.800      1.700     0.000000

    Generation configuration: not available.
  </PP_INFO>
  <!--                               -->
  <!-- END OF HUMAN READABLE SECTION -->
  <!--                               -->
  <PP_HEADER generated="Generated by new atomic code, or converted to UPF format"
             author=""
             date=""
             comment=""
             element="P"
             pseudo_type="US"
             relativistic="no"
             is_ultrasoft="T"
             is_paw="F"
             is_coulomb="F"
             has_so="F"
             has_wfc="F"
             has_gipaw="F"
             paw_as_gipaw="F"
             core_correction="F"
             functional=" SLA  PZ   NOGX NOGC"
             z_valence="5.000000000000000E+000"
             total_psenergy="-1.282005501026000E+001"
             wfc_cutoff="0.000000000000000E+000"
             rho_cutoff="0.000000000000000E+000"
             l_max="1"
             l_max_rho="0"
             l_local="0"
             mesh_size="773"
             number_of_wfc="2"
             number_of_proj="4"/>
  <PP_MESH dx="Infinity" mesh="773" xmin="-Infinity" rmax="7.957448370090000E+001" zmesh="1.500000000000000E+001">
    <PP_R type="real" size="773" columns="4">
 0.000000000000000E+000  2.824720605330000E-006  5.697725867190000E-006  8.619841144400001E-006 
 1.159190590410000E-005  1.461477396310000E-005  1.768931373270000E-005  2.081640846890000E-005 
 2.399695652530000E-005  2.723187161200000E-005  3.052208305730000E-005  3.386853607550000E-005 
 3.727219203760000E-005  4.073402874830000E-005  4.425504072610000E-005  4.783623948970000E-005 
 5.147865384820000E-005  5.518333019680000E-005  5.895133281720000E-005  6.278374418380000E-005 
 6.668166527410000E-005  7.064621588540000E-005  7.467853495650000E-005  7.877978089450000E-005 
 8.295113190810000E-005  8.719378634570000E-005  9.150896303980000E-005  9.589790165710000E-005 
 1.003618630550000E-004  1.049021296430000E-004  1.095200057510000E-004  1.142168180080000E-004 
 1.189939157140000E-004  1.238526712390000E-004  1.287944804090000E-004  1.338207629090000E-004 
 1.389329626950000E-004  1.441325484000000E-004  1.494210137670000E-004  1.547998780690000E-004 
 1.602706865490000E-004  1.658350108650000E-004  1.714944495400000E-004  1.772506284200000E-004 
 1.831052011450000E-004  1.890598496190000E-004  1.951162844990000E-004  2.012762456810000E-004 
 2.075415028030000E-004  2.139138557510000E-004  2.203951351790000E-004  2.269872030340000E-004 
 2.336919530890000E-004  2.405113114880000E-004  2.474472373030000E-004  2.545017230890000E-004 
 2.616767954650000E-004  2.689745156890000E-004  2.763969802550000E-004  2.839463214950000E-004 
 2.916247081870000E-004  2.994343461830000E-004  3.073774790420000E-004  3.154563886710000E-004 
 3.236733959850000E-004  3.320308615720000E-004  3.405311863690000E-004  3.491768123560000E-004 
 3.579702232520000E-004  3.669139452360000E-004  3.760105476650000E-004  3.852626438170000E-004 
 3.946728916410000E-004  4.042439945180000E-004  4.139787020410000E-004  4.238798108040000E-004 
 4.339501652020000E-004  4.441926582550000E-004  4.546102324320000E-004  4.652058805010000E-004 
 4.759826463850000E-004  4.869436260430000E-004  4.980919683500000E-004  5.094308760110000E-004 
 5.209636064730000E-004  5.326934728670000E-004  5.446238449570000E-004  5.567581501070000E-004 
 5.690998742690000E-004  5.816525629820000E-004  5.944198223890000E-004  6.074053202780000E-004 
 6.206127871299999E-004  6.340460171960000E-004  6.477088695820000E-004  6.616052693610000E-004 
 6.757392087010000E-004  6.901147480080000E-004  7.047360170970000E-004  7.196072163760001E-004 
 7.347326180520000E-004  7.501165673600000E-004  7.657634838110000E-004  7.816778624620000E-004 
 7.978642752060000E-004  8.143273720860000E-004  8.310718826310000E-004  8.481026172140000E-004 
 8.654244684380000E-004  8.830424125330000E-004  9.009615107940000E-004  9.191869110330000E-004 
 9.377238490520000E-004  9.565776501570000E-004  9.757537306790000E-004  9.952575995350000E-004 
 1.015094859810000E-003  1.035271210360000E-003  1.055792447470000E-003  1.076664466490000E-003 
 1.097893263540000E-003  1.119484937250000E-003  1.141445690490000E-003  1.163781832160000E-003 
 1.186499778990000E-003  1.209606057430000E-003  1.233107305440000E-003  1.257010274490000E-003 
 1.281321831440000E-003  1.306048960520000E-003  1.331198765370000E-003  1.356778471030000E-003 
 1.382795426060000E-003  1.409257104620000E-003  1.436171108650000E-003  1.463545170020000E-003 
 1.491387152760000E-003  1.519705055350000E-003  1.548507012950000E-003  1.577801299830000E-003 
 1.607596331650000E-003  1.637900667960000E-003  1.668723014610000E-003  1.700072226260000E-003 
 1.731957308930000E-003  1.764387422590000E-003  1.797371883780000E-003  1.830920168300000E-003 
 1.865041913920000E-003  1.899746923170000E-003  1.935045166110000E-003  1.970946783260000E-003 
 2.007462088440000E-003  2.044601571810000E-003  2.082375902810000E-003  2.120795933280000E-003 
 2.159872700560000E-003  2.199617430630000E-003  2.240041541400000E-003  2.281156645920000E-003 
 2.322974555770000E-003  2.365507284440000E-003  2.408767050730000E-003  2.452766282360000E-003 
 2.497517619450000E-003  2.543033918190000E-003  2.589328254540000E-003  2.636413927950000E-003 
 2.684304465240000E-003  2.733013624430000E-003  2.782555398710000E-003  2.832944020490000E-003 
 2.884193965430000E-003  2.936319956650000E-003  2.989336968950000E-003  3.043260233080000E-003 
 3.098105240150000E-003  3.153887746080000E-003  3.210623776100000E-003  3.268329629360000E-003 
 3.327021883660000E-003  3.386717400130000E-003  3.447433328140000E-003  3.509187110200000E-003 
 3.571996486990000E-003  3.635879502410000E-003  3.700854508830000E-003  3.766940172300000E-003 
 3.834155477960000E-003  3.902519735460000E-003  3.972052584530000E-003  4.042774000620000E-003 
 4.114704300620000E-003  4.187864148700000E-003  4.262274562290000E-003  4.337956918050000E-003 
 4.414932958060000E-003  4.493224796040000E-003  4.572854923730000E-003  4.653846217320000E-003 
 4.736221944040000E-003  4.820005768840000E-003  4.905221761200000E-003  4.991894402020000E-003 
 5.080048590670000E-003  5.169709652150000E-003  5.260903344340000E-003  5.353655865430000E-003 
 5.447993861420000E-003  5.543944433790000E-003  5.641535147290000E-003  5.740794037830000E-003 
 5.841749620590000E-003  5.944430898130000E-003  6.048867368810000E-003  6.155089035200000E-003 
 6.263126412740000E-003  6.373010538470000E-003  6.484772979970000E-003  6.598445844430000E-003 
 6.714061787860000E-003  6.831654024500000E-003  6.951256336300000E-003  7.072903082710000E-003 
 7.196629210470000E-003  7.322470263720000E-003  7.450462394140000E-003  7.580642371410000E-003 
 7.713047593710000E-003  7.847716098490000E-003  7.984686573420000E-003  8.123998367469999E-003 
 8.265691502200001E-003  8.409806683320000E-003  8.556385312340001E-003  8.705469498450000E-003 
 8.857102070660001E-003  9.011326590070000E-003  9.168187362410001E-003  9.327729450730000E-003 
 9.489998688390001E-003  9.655041692200000E-003  9.822905875830000E-003  9.993639463399999E-003 
 1.016729150340000E-002  1.034391188260000E-002  1.052355134080000E-002  1.070626148470000E-002 
 1.089209480360000E-002  1.108110468370000E-002  1.127334542390000E-002  1.146887225130000E-002 
 1.166774133700000E-002  1.187000981210000E-002  1.207573578450000E-002  1.228497835530000E-002 
 1.249779763580000E-002  1.271425476480000E-002  1.293441192650000E-002  1.315833236750000E-002 
 1.338608041600000E-002  1.361772149950000E-002  1.385332216410000E-002  1.409295009320000E-002 
 1.433667412730000E-002  1.458456428370000E-002  1.483669177630000E-002  1.509312903650000E-002 
 1.535394973390000E-002  1.561922879700000E-002  1.588904243550000E-002  1.616346816150000E-002 
 1.644258481240000E-002  1.672647257290000E-002  1.701521299840000E-002  1.730888903860000E-002 
 1.760758506080000E-002  1.791138687460000E-002  1.822038175650000E-002  1.853465847460000E-002 
 1.885430731460000E-002  1.917942010540000E-002  1.951009024570000E-002  1.984641273050000E-002 
 2.018848417880000E-002  2.053640286110000E-002  2.089026872770000E-002  2.125018343750000E-002 
 2.161625038690000E-002  2.198857474000000E-002  2.236726345820000E-002  2.275242533160000E-002 
 2.314417100960000E-002  2.354261303330000E-002  2.394786586730000E-002  2.436004593300000E-002 
 2.477927164160000E-002  2.520566342860000E-002  2.563934378820000E-002  2.608043730820000E-002 
 2.652907070640000E-002  2.698537286640000E-002  2.744947487500000E-002  2.792151005980000E-002 
 2.840161402720000E-002  2.888992470190000E-002  2.938658236610000E-002  2.989172970000000E-002 
 3.040551182250000E-002  3.092807633340000E-002  3.145957335520000E-002  3.200015557690000E-002 
 3.254997829730000E-002  3.310919946970000E-002  3.367797974760000E-002  3.425648253050000E-002 
 3.484487401120000E-002  3.544332322300000E-002  3.605200208900000E-002  3.667108547060000E-002 
 3.730075121870000E-002  3.794118022390000E-002  3.859255646920000E-002  3.925506708240000E-002 
 3.992890238990000E-002  4.061425597150000E-002  4.131132471610000E-002  4.202030887810000E-002 
 4.274141213490000E-002  4.347484164540000E-002  4.422080810990000E-002  4.497952583000000E-002 
 4.575121277060000E-002  4.653609062250000E-002  4.733438486590000E-002  4.814632483530000E-002 
 4.897214378530000E-002  4.981207895770000E-002  5.066637164970000E-002  5.153526728300000E-002 
 5.241901547450000E-002  5.331787010790000E-002  5.423208940690000E-002  5.516193600880000E-002 
 5.610767704080000E-002  5.706958419580000E-002  5.804793381110000E-002  5.904300694770000E-002 
 6.005508947090000E-002  6.108447213230000E-002  6.213145065370000E-002  6.319632581170000E-002 
 6.427940352439999E-002  6.538099493910000E-002  6.650141652160001E-002  6.764099014730000E-002 
 6.880004319380000E-002  6.997890863450000E-002  7.117792513470000E-002  7.239743714860000E-002 
 7.363779501850000E-002  7.489935507499999E-002  7.618247974010001E-002  7.748753763049999E-002 
 7.881490366430000E-002  8.016495916789999E-002  8.153809198610000E-002  8.293469659360000E-002 
 8.435517420770000E-002  8.579993290410000E-002  8.726938773420000E-002  8.876396084370000E-002 
 9.028408159480000E-002  9.183018668860000E-002  9.340272029120000E-002  9.500213416099999E-002 
 9.662888777890000E-002  9.828344847950000E-002  9.996629158610000E-002  1.016779005470000E-001 
 1.034187670740000E-001  1.051893912860000E-001  1.069902818460000E-001  1.088219561180000E-001 
 1.106849403050000E-001  1.125797696070000E-001  1.145069883710000E-001  1.164671502500000E-001 
 1.184608183610000E-001  1.204885654460000E-001  1.225509740380000E-001  1.246486366260000E-001 
 1.267821558280000E-001  1.289521445640000E-001  1.311592262280000E-001  1.334040348740000E-001 
 1.356872153900000E-001  1.380094236910000E-001  1.403713269020000E-001  1.427736035510000E-001 
 1.452169437680000E-001  1.477020494760000E-001  1.502296345970000E-001  1.528004252580000E-001 
 1.554151599990000E-001  1.580745899800000E-001  1.607794792050000E-001  1.635306047370000E-001 
 1.663287569200000E-001  1.691747396090000E-001  1.720693704010000E-001  1.750134808660000E-001 
 1.780079167910000E-001  1.810535384190000E-001  1.841512206980000E-001  1.873018535320000E-001 
 1.905063420380000E-001  1.937656068030000E-001  1.970805841500000E-001  2.004522264080000E-001 
 2.038815021850000E-001  2.073693966460000E-001  2.109169117950000E-001  2.145250667640000E-001 
 2.181948981070000E-001  2.219274600950000E-001  2.257238250210000E-001  2.295850835070000E-001 
 2.335123448180000E-001  2.375067371800000E-001  2.415694081050000E-001  2.457015247200000E-001 
 2.499042741010000E-001  2.541788636180000E-001  2.585265212760000E-001  2.629484960750000E-001 
 2.674460583620000E-001  2.720205001980000E-001  2.766731357340000E-001  2.814053015820000E-001 
 2.862183572000000E-001  2.911136852860000E-001  2.960926921750000E-001  3.011568082370000E-001 
 3.063074882960000E-001  3.115462120420000E-001  3.168744844600000E-001  3.222938362580000E-001 
 3.278058243110000E-001  3.334120321080000E-001  3.391140702040000E-001  3.449135766820000E-001 
 3.508122176300000E-001  3.568116876130000E-001  3.629137101620000E-001  3.691200382700000E-001 
 3.754324548960000E-001  3.818527734750000E-001  3.883828384390000E-001  3.950245257500000E-001 
 4.017797434370000E-001  4.086504321420000E-001  4.156385656820000E-001  4.227461516130000E-001 
 4.299752318050000E-001  4.373278830340000E-001  4.448062175740000E-001  4.524123838070000E-001 
 4.601485668350000E-001  4.680169891170000E-001  4.760199110950000E-001  4.841596318560000E-001 
 4.924384897840000E-001  5.008588632330000E-001  5.094231712150000E-001  5.181338740900000E-001 
 5.269934742740000E-001  5.360045169580000E-001  5.451695908400001E-001  5.544913288700000E-001 
 5.639724090020000E-001  5.736155549670000E-001  5.834235370540000E-001  5.933991729069999E-001 
 6.035453283330000E-001  6.138649181250000E-001  6.243609069029999E-001  6.350363099600000E-001 
 6.458941941350000E-001  6.569376786850000E-001  6.681699361920000E-001  6.795941934650001E-001 
 6.912137324720000E-001  7.030318912820001E-001  7.150520650230000E-001  7.272777068590000E-001 
 7.397123289790000E-001  7.523595036110000E-001  7.652228640430000E-001  7.783061056690000E-001 
 7.916129870510000E-001  8.051473310000000E-001  8.189130256690000E-001  8.329140256780000E-001 
 8.471543532410000E-001  8.616380993300000E-001  8.763694248450000E-001  8.913525618100000E-001 
 9.065918145910000E-001  9.220915611310000E-001  9.378562542050000E-001  9.538904227070000E-001 
 9.701986729410000E-001  9.867856899530000E-001  1.003656238870000E+000  1.020815166280000E+000 
 1.038267401600000E+000  1.056017958540000E+000  1.074071936460000E+000  1.092434521950000E+000 
 1.111110990210000E+000  1.130106706620000E+000  1.149427128300000E+000  1.169077805620000E+000 
 1.189064383850000E+000  1.209392604740000E+000  1.230068308190000E+000  1.251097433940000E+000 
 1.272486023250000E+000  1.294240220640000E+000  1.316366275670000E+000  1.338870544730000E+000 
 1.361759492870000E+000  1.385039695630000E+000  1.408717840970000E+000  1.432800731160000E+000 
 1.457295284740000E+000  1.482208538530000E+000  1.507547649630000E+000  1.533319897460000E+000 
 1.559532685910000E+000  1.586193545390000E+000  1.613310135060000E+000  1.640890244980000E+000 
 1.668941798390000E+000  1.697472853960000E+000  1.726491608100000E+000  1.756006397340000E+000 
 1.786025700720000E+000  1.816558142190000E+000  1.847612493140000E+000  1.879197674880000E+000 
 1.911322761220000E+000  1.943996981070000E+000  1.977229721120000E+000  2.011030528470000E+000 
 2.045409113460000E+000  2.080375352370000E+000  2.115939290340000E+000  2.152111144200000E+000 
 2.188901305410000E+000  2.226320343090000E+000  2.264379006990000E+000  2.303088230640000E+000 
 2.342459134440000E+000  2.382503028900000E+000  2.423231417840000E+000  2.464656001760000E+000 
 2.506788681120000E+000  2.549641559830000E+000  2.593226948710000E+000  2.637557368970000E+000 
 2.682645555900000E+000  2.728504462470000E+000  2.775147263040000E+000  2.822587357180000E+000 
 2.870838373530000E+000  2.919914173670000E+000  2.969828856120000E+000  3.020596760400000E+000 
 3.072232471150000E+000  3.124750822320000E+000  3.178166901400000E+000  3.232496053810000E+000 
 3.287753887260000E+000  3.343956276240000E+000  3.401119366640000E+000  3.459259580280000E+000 
 3.518393619740000E+000  3.578538473070000E+000  3.639711418730000E+000  3.701930030520000E+000 
 3.765212182650000E+000  3.829576054850000E+000  3.895040137620000E+000  3.961623237530000E+000 
 4.029344482600000E+000  4.098223327840000E+000  4.168279560820000E+000  4.239533307320000E+000 
 4.312005037180000E+000  4.385715570120000E+000  4.460686081750000E+000  4.536938109640000E+000 
 4.614493559530000E+000  4.693374711600000E+000  4.773604226880000E+000  4.855205153750000E+000 
 4.938200934590000E+000  5.022615412460000E+000  5.108472838030000E+000  5.195797876460000E+000 
 5.284615614560000E+000  5.374951567930000E+000  5.466831688350000E+000  5.560282371190000E+000 
 5.655330463050000E+000  5.752003269380000E+000  5.850328562410000E+000  5.950334589110000E+000 
 6.052050079260000E+000  6.155504253770000E+000  6.260726833000000E+000  6.367748045370000E+000 
 6.476598636020000E+000  6.587309875590000E+000  6.699913569290000E+000  6.814442065990000E+000 
 6.930928267500000E+000  7.049405638060000E+000  7.169908213920000E+000  7.292470613130000E+000 
 7.417128045510000E+000  7.543916322730000E+000  7.672871868590000E+000  7.804031729540000E+000 
 7.937433585270000E+000  8.073115759540000E+000  8.211117231219999E+000  8.351477645459999E+000 
 8.494237325100000E+000  8.639437282219999E+000  8.787119229960000E+000  8.937325594490000E+000 
 9.090099527200000E+000  9.245484917070000E+000  9.403526403330000E+000  9.564269388220000E+000 
 9.727760050110000E+000  9.894045356690000E+000  1.006317307850000E+001  1.023519180270000E+001 
 1.041015094690000E+001  1.058810077350000E+001  1.076909240410000E+001  1.095317783400000E+001 
 1.114040994740000E+001  1.133084253240000E+001  1.152453029680000E+001  1.172152888310000E+001 
 1.192189488540000E+001  1.212568586480000E+001  1.233296036660000E+001  1.254377793670000E+001 
 1.275819913900000E+001  1.297628557250000E+001  1.319809988920000E+001  1.342370581210000E+001 
 1.365316815340000E+001  1.388655283310000E+001  1.412392689830000E+001  1.436535854180000E+001 
 1.461091712230000E+001  1.486067318400000E+001  1.511469847700000E+001  1.537306597790000E+001 
 1.563584991070000E+001  1.590312576800000E+001  1.617497033310000E+001  1.645146170170000E+001 
 1.673267930430000E+001  1.701870392940000E+001  1.730961774630000E+001  1.760550432880000E+001 
 1.790644867960000E+001  1.821253725400000E+001  1.852385798540000E+001  1.884050031020000E+001 
 1.916255519370000E+001  1.949011515590000E+001  1.982327429860000E+001  2.016212833180000E+001 
 2.050677460180000E+001  2.085731211880000E+001  2.121384158550000E+001  2.157646542580000E+001 
 2.194528781450000E+001  2.232041470730000E+001  2.270195387080000E+001  2.309001491370000E+001 
 2.348470931870000E+001  2.388615047360000E+001  2.429445370490000E+001  2.470973631000000E+001 
 2.513211759170000E+001  2.556171889190000E+001  2.599866362680000E+001  2.644307732210000E+001 
 2.689508764940000E+001  2.735482446230000E+001  2.782241983440000E+001  2.829800809690000E+001 
 2.878172587690000E+001  2.927371213740000E+001  2.977410821630000E+001  3.028305786780000E+001 
 3.080070730330000E+001  3.132720523350000E+001  3.186270291100000E+001  3.240735417400000E+001 
 3.296131549020000E+001  3.352474600200000E+001  3.409780757200000E+001  3.468066482980000E+001 
 3.527348521900000E+001  3.587643904540000E+001  3.648969952590000E+001  3.711344283850000E+001 
 3.774784817250000E+001  3.839309778030000E+001  3.904937702970000E+001  3.971687445690000E+001 
 4.039578182100000E+001  4.108629415910000E+001  4.178860984190000E+001  4.250293063110000E+001 
 4.322946173730000E+001  4.396841187880000E+001  4.471999334170000E+001  4.548442204070000E+001 
 4.626191758160000E+001  4.705270332360000E+001  4.785700644420000E+001  4.867505800420000E+001 
 4.950709301400000E+001  5.035335050100000E+001  5.121407357870000E+001  5.208950951620000E+001 
 5.297990980930000E+001  5.388553025270000E+001  5.480663101370000E+001  5.574347670670000E+001 
 5.669633646940000E+001  5.766548403990000E+001  5.865119783550000E+001  5.965376103280000E+001 
 6.067346164880000E+001  6.171059262370000E+001  6.276545190520000E+001  6.383834253390000E+001 
 6.492957273060000E+001  6.603945598460000E+001  6.716831114380000E+001  6.831646250650000E+001 
 6.948423991440001E+001  7.067197884730000E+001  7.188002051960000E+001  7.310871197840000E+001 
 7.435840620290000E+001  7.562946220610000E+001  7.692224513770000E+001  7.823712638930000E+001 
 7.957448370090000E+001
    </PP_R>
    <PP_RAB type="real" size="773" columns="4">
 2.800849917140000E-006  2.848726537570000E-006  2.897421542000000E-006  2.946948919580000E-006 
 2.997322898560000E-006  3.048557950410000E-006  3.100668793960000E-006  3.153670399660000E-006 
 3.207577993840000E-006  3.262407063100000E-006  3.318173358790000E-006  3.374892901470000E-006 
 3.432581985570000E-006  3.491257184060000E-006  3.550935353170000E-006  3.611633637300000E-006 
 3.673369473890000E-006  3.736160598440000E-006  3.800025049630000E-006  3.864981174490000E-006 
 3.931047633650000E-006  3.998243406720000E-006  4.066587797760000E-006  4.136100440770000E-006 
 4.206801305410000E-006  4.278710702660000E-006  4.351849290690000E-006  4.426238080820000E-006 
 4.501898443490000E-006  4.578852114470000E-006  4.657121201060000E-006  4.736728188450000E-006 
 4.817695946190000E-006  4.900047734750000E-006  4.983807212200000E-006  5.068998441030000E-006 
 5.155645895010000E-006  5.243774466300000E-006  5.333409472520000E-006  5.424576664070000E-006 
 5.517302231530000E-006  5.611612813160000E-006  5.707535502550000E-006  5.805097856460000E-006 
 5.904327902640000E-006  6.005254147970000E-006  6.107905586620000E-006  6.212311708350000E-006 
 6.318502507010000E-006  6.426508489180000E-006  6.536360682880000E-006  6.648090646520000E-006 
 6.761730477960000E-006  6.877312823720000E-006  6.994870888370000E-006  7.114438444070000E-006 
 7.236049840260000E-006  7.359740013550000E-006  7.485544497730000E-006  7.613499433990000E-006 
 7.743641581320000E-006  7.876008327019999E-006  8.010637697499999E-006  8.147568369190000E-006 
 8.286839679600001E-006  8.428491638699999E-006  8.572564940349999E-006  8.719100974010001E-006 
 8.868141836670000E-006  9.019730344870000E-006  9.173910047050000E-006  9.330725236080001E-006 
 9.490220961900001E-006  9.652443044560000E-006  9.817438087330001E-006  9.985253490079999E-006 
 1.015593746290000E-005  1.032953904010000E-005  1.050610809390000E-005  1.068569534930000E-005 
 1.086835239820000E-005  1.105413171450000E-005  1.124308666880000E-005  1.143527154440000E-005 
 1.163074155230000E-005  1.182955284710000E-005  1.203176254350000E-005  1.223742873250000E-005 
 1.244661049800000E-005  1.265936793380000E-005  1.287576216100000E-005  1.309585534560000E-005 
 1.331971071600000E-005  1.354739258150000E-005  1.377896635070000E-005  1.401449855040000E-005 
 1.425405684430000E-005  1.449771005290000E-005  1.474552817300000E-005  1.499758239810000E-005 
 1.525394513830000E-005  1.551469004190000E-005  1.577989201560000E-005  1.604962724700000E-005 
 1.632397322570000E-005  1.660300876610000E-005  1.688681402950000E-005  1.717547054790000E-005 
 1.746906124660000E-005  1.776767046850000E-005  1.807138399840000E-005  1.838028908720000E-005 
 1.869447447730000E-005  1.901403042830000E-005  1.933904874220000E-005  1.966962279060000E-005 
 2.000584754100000E-005  2.034781958430000E-005  2.069563716240000E-005  2.104940019660000E-005 
 2.140921031610000E-005  2.177517088750000E-005  2.214738704410000E-005  2.252596571640000E-005 
 2.291101566280000E-005  2.330264750060000E-005  2.370097373820000E-005  2.410610880680000E-005 
 2.451816909410000E-005  2.493727297680000E-005  2.536354085560000E-005  2.579709518880000E-005 
 2.623806052830000E-005  2.668656355480000E-005  2.714273311460000E-005  2.760670025650000E-005 
 2.807859826910000E-005  2.855856271960000E-005  2.904673149260000E-005  2.954324482940000E-005 
 3.004824536880000E-005  3.056187818770000E-005  3.108429084270000E-005  3.161563341300000E-005 
 3.215605854300000E-005  3.270572148640000E-005  3.326478015060000E-005  3.383339514250000E-005 
 3.441172981420000E-005  3.499995030990000E-005  3.559822561400000E-005  3.620672759950000E-005 
 3.682563107720000E-005  3.745511384610000E-005  3.809535674450000E-005  3.874654370160000E-005 
 3.940886179100000E-005  4.008250128380000E-005  4.076765570350000E-005  4.146452188190000E-005 
 4.217330001500000E-005  4.289419372110000E-005  4.362741009910000E-005  4.437315978770000E-005 
 4.513165702650000E-005  4.590311971700000E-005  4.668776948560000E-005  4.748583174680000E-005 
 4.829753576870000E-005  4.912311473790000E-005  4.996280582750000E-005  5.081685026440000E-005 
 5.168549339890000E-005  5.256898477560000E-005  5.346757820440000E-005  5.438153183370000E-005 
 5.531110822480000E-005  5.625657442700000E-005  5.721820205440000E-005  5.819626736400000E-005 
 5.919105133510000E-005  6.020283974980000E-005  6.123192327540001E-005  6.227859754770000E-005 
 6.334316325590000E-005  6.442592622919999E-005  6.552719752440001E-005  6.664729351540000E-005 
 6.778653598419999E-005  6.894525221310000E-005  7.012377507870000E-005  7.132244314800000E-005 
 7.254160077500000E-005  7.378159820029999E-005  7.504279165090000E-005  7.632554344339999E-005 
 7.763022208760001E-005  7.895720239240000E-005  8.030686557360000E-005  8.167959936320000E-005 
 8.307579812120000E-005  8.449586294830000E-005  8.594020180190000E-005  8.740922961240001E-005 
 8.890336840310000E-005  9.042304741120000E-005  9.196870321099999E-005  9.354077983970001E-005 
 9.513972892420000E-005  9.676600981190001E-005  9.842008970170000E-005  1.001024437790000E-004 
 1.018135553510000E-004  1.035539159870000E-004  1.053240256600000E-004  1.071243928870000E-004 
 1.089555348790000E-004  1.108179776880000E-004  1.127122563570000E-004  1.146389150770000E-004 
 1.165985073390000E-004  1.185915960950000E-004  1.206187539220000E-004  1.226805631830000E-004 
 1.247776161960000E-004  1.269105154040000E-004  1.290798735470000E-004  1.312863138390000E-004 
 1.335304701490000E-004  1.358129871800000E-004  1.381345206530000E-004  1.404957375010000E-004 
 1.428973160560000E-004  1.453399462450000E-004  1.478243297870000E-004  1.503511803990000E-004 
 1.529212239960000E-004  1.555351989010000E-004  1.581938560600000E-004  1.608979592510000E-004 
 1.636482853140000E-004  1.664456243610000E-004  1.692907800160000E-004  1.721845696360000E-004 
 1.751278245510000E-004  1.781213903000000E-004  1.811661268790000E-004  1.842629089800000E-004 
 1.874126262490000E-004  1.906161835390000E-004  1.938745011710000E-004  1.971885151940000E-004 
 2.005591776620000E-004  2.039874569010000E-004  2.074743377900000E-004  2.110208220400000E-004 
 2.146279284890000E-004  2.182966933890000E-004  2.220281707050000E-004  2.258234324170000E-004 
 2.296835688320000E-004  2.336096888920000E-004  2.376029204950000E-004  2.416644108190000E-004 
 2.457953266520000E-004  2.499968547260000E-004  2.542702020580000E-004  2.586165962990000E-004 
 2.630372860840000E-004  2.675335413910000E-004  2.721066539080000E-004  2.767579374010000E-004 
 2.814887280940000E-004  2.863003850510000E-004  2.911942905690000E-004  2.961718505710000E-004 
 3.012344950150000E-004  3.063836783010000E-004  3.116208796880000E-004  3.169476037240000E-004 
 3.223653806730000E-004  3.278757669580000E-004  3.334803456070000E-004  3.391807267050000E-004 
 3.449785478630000E-004  3.508754746820000E-004  3.568732012350000E-004  3.629734505530000E-004 
 3.691779751190000E-004  3.754885573740000E-004  3.819070102260000E-004  3.884351775710000E-004 
 3.950749348260000E-004  4.018281894650000E-004  4.086968815670000E-004  4.156829843750000E-004 
 4.227885048600000E-004  4.300154843010000E-004  4.373659988690000E-004  4.448421602260000E-004 
 4.524461161280000E-004  4.601800510430000E-004  4.680461867820000E-004  4.760467831330000E-004 
 4.841841385140000E-004  4.924605906280000E-004  5.008785171400001E-004  5.094403363570000E-004 
 5.181485079250000E-004  5.270055335330000E-004  5.360139576330000E-004  5.451763681700000E-004 
 5.544953973290000E-004  5.639737222850000E-004  5.736140659780000E-004  5.834191978920000E-004 
 5.933919348520000E-004  6.035351418330000E-004  6.138517327810001E-004  6.243446714530000E-004 
 6.350169722669999E-004  6.458717011700000E-004  6.569119765140000E-004  6.681409699570000E-004 
 6.795619073720000E-004  6.911780697730000E-004  7.029927942580000E-004  7.150094749700000E-004 
 7.272315640680000E-004  7.396625727210001E-004  7.523060721190000E-004  7.651656944930001E-004 
 7.782451341650000E-004  7.915481486040000E-004  8.050785595090000E-004  8.188402539050000E-004 
 8.328371852610000E-004  8.470733746240000E-004  8.615529117760000E-004  8.762799564080000E-004 
 8.912587393150000E-004  9.064935636110000E-004  9.219888059660000E-004  9.377489178640000E-004 
 9.537784268790000E-004  9.700819379810000E-004  9.866641348510001E-004  1.003529781230000E-003 
 1.020683722300000E-003  1.038130886060000E-003  1.055876284730000E-003  1.073925016220000E-003 
 1.092282265590000E-003  1.110953306510000E-003  1.129943502820000E-003  1.149258310040000E-003 
 1.168903276930000E-003  1.188884047110000E-003  1.209206360680000E-003  1.229876055830000E-003 
 1.250899070570000E-003  1.272281444410000E-003  1.294029320090000E-003  1.316148945350000E-003 
 1.338646674740000E-003  1.361528971410000E-003  1.384802409000000E-003  1.408473673540000E-003 
 1.432549565300000E-003  1.457037000830000E-003  1.481943014900000E-003  1.507274762520000E-003 
 1.533039521020000E-003  1.559244692100000E-003  1.585897804000000E-003  1.613006513660000E-003 
 1.640578608880000E-003  1.668622010590000E-003  1.697144775110000E-003  1.726155096480000E-003 
 1.755661308810000E-003  1.785671888660000E-003  1.816195457480000E-003  1.847240784120000E-003 