<UPF version="2.0.1">
  <PP_INFO>
    Generated by new atomic code, or converted to UPF format
    Author: 
    Generation date: 
    Pseudopotential type: NC
    Element: Si
    Functional:  SLA  PW   PBE  PBE

    Suggested minimum cutoff for wavefunctions:   0. Ry
    Suggested minimum cutoff for charge density:   0. Ry
    The Pseudo was generated with a Non-Relativistic Calculation
    L component and cutoff radius for Local Potential:  0   0.0000

    Valence configuration: 
    nl pn  l   occ       Rcut    Rcut US       E pseu
    3S  0  0  2.00      2.500      2.600     0.000000
    3P  0  1  2.00      2.500      2.600     0.000000

    Generation configuration: not available.
  </PP_INFO>
  <!--                               -->
  <!-- END OF HUMAN READABLE SECTION -->
  <!--                               -->
  <PP_HEADER generated="Generated by new atomic code, or converted to UPF format"
             author=""
             date=""
             comment=""
             element="Si"
             pseudo_type="NC"
             relativistic="no"
             is_ultrasoft="F"
             is_paw="F"
             is_coulomb="F"
             has_so="F"
             has_wfc="F"
             has_gipaw="F"
             paw_as_gipaw="F"
             core_correction="F"
             functional=" SLA  PW   PBE  PBE"
             z_valence="4.000000000000000E+000"
             total_psenergy="-7.474808322700000E+000"
             wfc_cutoff="0.000000000000000E+000"
             rho_cutoff="0.000000000000000E+000"
             l_max="2"
             l_max_rho="0"
             l_local="0"
             mesh_size="883"
             number_of_wfc="2"
             number_of_proj="3"/>
  <PP_MESH dx="1.499999999999829E-002" mesh="883" xmin="-5.999999999998531E+000" rmax="9.858732172050000E+001"
zmesh="1.400000000000000E+001">
    <PP_R type="real" size="883" columns="4">
 1.770537269050000E-004  1.797295513200000E-004  1.824458156420000E-004  1.852031310430000E-004 
 1.880021179300000E-004  1.908434060860000E-004  1.937276348130000E-004  1.966554530760000E-004 
 1.996275196450000E-004  2.026445032490000E-004  2.057070827210000E-004  2.088159471540000E-004 
 2.119717960560000E-004  2.151753395060000E-004  2.184272983160000E-004  2.217284041890000E-004 
 2.250793998890000E-004  2.284810394030000E-004  2.319340881150000E-004  2.354393229750000E-004 
 2.389975326770000E-004  2.426095178310000E-004  2.462760911500000E-004  2.499980776290000E-004 
 2.537763147300000E-004  2.576116525730000E-004  2.615049541240000E-004  2.654570953930000E-004 
 2.694689656280000E-004  2.735414675170000E-004  2.776755173910000E-004  2.818720454280000E-004 
 2.861319958640000E-004  2.904563272060000E-004  2.948460124470000E-004  2.993020392850000E-004 
 3.038254103440000E-004  3.084171434020000E-004  3.130782716190000E-004  3.178098437680000E-004 
 3.226129244720000E-004  3.274885944460000E-004  3.324379507350000E-004  3.374621069650000E-004 
 3.425621935930000E-004  3.477393581590000E-004  3.529947655490000E-004  3.583295982490000E-004 
 3.637450566210000E-004  3.692423591660000E-004  3.748227427990000E-004  3.804874631300000E-004 
 3.862377947460000E-004  3.920750314950000E-004  3.980004867800000E-004  4.040154938540000E-004 
 4.101214061180000E-004  4.163195974290000E-004  4.226114624060000E-004  4.289984167450000E-004 
 4.354818975370000E-004  4.420633635930000E-004  4.487442957720000E-004  4.555261973090000E-004 
 4.624105941640000E-004  4.693990353520000E-004  4.764930933040000E-004  4.836943642120000E-004 
 4.910044683930000E-004  4.984250506500000E-004  5.059577806470000E-004  5.136043532780000E-004 
 5.213664890560000E-004  5.292459344940000E-004  5.372444625000000E-004  5.453638727760000E-004 
 5.536059922240000E-004  5.619726753560000E-004  5.704658047110000E-004  5.790872912790000E-004 
 5.878390749300000E-004  5.967231248530000E-004  6.057414399970000E-004  6.148960495199999E-004 
 6.241890132480000E-004  6.336224221380000E-004  6.431983987450000E-004  6.529190977060000E-004 
 6.627867062190000E-004  6.728034445360001E-004  6.829715664670000E-004  6.932933598820000E-004 
 7.037711472280000E-004  7.144072860500000E-004  7.252041695260000E-004  7.361642270000000E-004 
 7.472899245300000E-004  7.585837654470000E-004  7.700482909100000E-004  7.816860804880000E-004 
 7.934997527320000E-004  8.054919657670000E-004  8.176654178930000E-004  8.300228481880000E-004 
 8.425670371250000E-004  8.553008072000000E-004  8.682270235649999E-004  8.813485946740000E-004 
 8.946684729340000E-004  9.081896553750000E-004  9.219151843199999E-004  9.358481480710000E-004 
 9.499916816030000E-004  9.643489672720000E-004  9.789232355260000E-004  9.937177656379999E-004 
 1.008735886440000E-003  1.023980977070000E-003  1.039456467740000E-003  1.055165840510000E-003 
 1.071112630030000E-003  1.087300424420000E-003  1.103732865990000E-003  1.120413652120000E-003 
 1.137346536040000E-003  1.154535327730000E-003  1.171983894740000E-003  1.189696163060000E-003 
 1.207676118050000E-003  1.225927805260000E-003  1.244455331390000E-003  1.263262865230000E-003 
 1.282354638540000E-003  1.301734947050000E-003  1.321408151420000E-003  1.341378678190000E-003 
 1.361651020830000E-003  1.382229740690000E-003  1.403119468080000E-003  1.424324903260000E-003 
 1.445850817560000E-003  1.467702054390000E-003  1.489883530370000E-003  1.512400236440000E-003 
 1.535257238930000E-003  1.558459680790000E-003  1.582012782650000E-003  1.605921844050000E-003 
 1.630192244650000E-003  1.654829445380000E-003  1.679838989710000E-003  1.705226504910000E-003 
 1.730997703260000E-003  1.757158383400000E-003  1.783714431590000E-003  1.810671823050000E-003 
 1.838036623310000E-003  1.865814989570000E-003  1.894013172060000E-003  1.922637515520000E-003 
 1.951694460520000E-003  1.981190545010000E-003  2.011132405740000E-003  2.041526779730000E-003 
 2.072380505870000E-003  2.103700526360000E-003  2.135493888350000E-003  2.167767745470000E-003 
 2.200529359480000E-003  2.233786101880000E-003  2.267545455580000E-003  2.301815016570000E-003 
 2.336602495640000E-003  2.371915720140000E-003  2.407762635680000E-003  2.444151307980000E-003 
 2.481089924620000E-003  2.518586796970000E-003  2.556650361980000E-003  2.595289184100000E-003 
 2.634511957230000E-003  2.674327506670000E-003  2.714744791080000E-003  2.755772904530000E-003 
 2.797421078500000E-003  2.839698684020000E-003  2.882615233720000E-003  2.926180384010000E-003 
 2.970403937230000E-003  3.015295843860000E-003  3.060866204790000E-003  3.107125273520000E-003 
 3.154083458550000E-003  3.201751325660000E-003  3.250139600330000E-003  3.299259170120000E-003 
 3.349121087140000E-003  3.399736570540000E-003  3.451117009000000E-003  3.503273963360000E-003 
 3.556219169130000E-003  3.609964539220000E-003  3.664522166570000E-003  3.719904326850000E-003 
 3.776123481310000E-003  3.833192279480000E-003  3.891123562080000E-003  3.949930363910000E-003 
 4.009625916720000E-003  4.070223652290000E-003  4.131737205350000E-003  4.194180416710000E-003 
 4.257567336350000E-003  4.321912226610000E-003  4.387229565360000E-003  4.453534049260000E-003 
 4.520840597120000E-003  4.589164353180000E-003  4.658520690580000E-003  4.728925214790000E-003 
 4.800393767120000E-003  4.872942428310000E-003  4.946587522100000E-003  5.021345618940000E-003 
 5.097233539740000E-003  5.174268359590000E-003  5.252467411650000E-003  5.331848291030000E-003 
 5.412428858770000E-003  5.494227245850000E-003  5.577261857230000E-003  5.661551376050000E-003 
 5.747114767820000E-003  5.833971284660000E-003  5.922140469660000E-003  6.011642161240000E-003 
 6.102496497670000E-003  6.194723921550000E-003  6.288345184460000E-003  6.383381351550000E-003 
 6.479853806390000E-003  6.577784255660000E-003  6.677194734150000E-003  6.778107609620000E-003 
 6.880545587890000E-003  6.984531717950000E-003  7.090089397120000E-003  7.197242376310000E-003 
 7.306014765400000E-003  7.416431038630000E-003  7.528516040130000E-003  7.642294989510000E-003 
 7.757793487500000E-003  7.875037521750001E-003  7.994053472670000E-003  8.114868119340000E-003 
 8.237508645580000E-003  8.362002646009999E-003  8.488378132309999E-003  8.616663539509999E-003 
 8.746887732360001E-003  8.879080011840000E-003  9.013270121790000E-003  9.149488255540000E-003 
 9.287765062740001E-003  9.428131656269999E-003  9.570619619199999E-003  9.715261011920001E-003 
 9.862088379350001E-003  1.001113475830000E-002  1.016243368480000E-002  1.031601920170000E-002 
 1.047192586650000E-002  1.063018875870000E-002  1.079084348830000E-002  1.095392620320000E-002 
 1.111947359770000E-002  1.128752292070000E-002  1.145811198390000E-002  1.163127917070000E-002 
 1.180706344440000E-002  1.198550435720000E-002  1.216664205900000E-002  1.235051730660000E-002 
 1.253717147260000E-002  1.272664655520000E-002  1.291898518690000E-002  1.311423064480000E-002 
 1.331242686000000E-002  1.351361842730000E-002  1.371785061580000E-002  1.392516937850000E-002 
 1.413562136310000E-002  1.434925392220000E-002  1.456611512390000E-002  1.478625376290000E-002 
 1.500971937150000E-002  1.523656223020000E-002  1.546683337970000E-002  1.570058463200000E-002 
 1.593786858200000E-002  1.617873861970000E-002  1.642324894190000E-002  1.667145456440000E-002 
 1.692341133440000E-002  1.717917594350000E-002  1.743880593950000E-002  1.770235974050000E-002 
 1.796989664710000E-002  1.824147685630000E-002  1.851716147470000E-002  1.879701253260000E-002 
 1.908109299760000E-002  1.936946678900000E-002  1.966219879210000E-002  1.995935487300000E-002 
 2.026100189280000E-002  2.056720772360000E-002  2.087804126290000E-002  2.119357244960000E-002 
 2.151387227940000E-002  2.183901282130000E-002  2.216906723320000E-002  2.250410977880000E-002 
 2.284421584400000E-002  2.318946195420000E-002  2.353992579110000E-002  2.389568621060000E-002 
 2.425682326040000E-002  2.462341819770000E-002  2.499555350790000E-002  2.537331292320000E-002 
 2.575678144090000E-002  2.614604534310000E-002  2.654119221590000E-002  2.694231096880000E-002 
 2.734949185540000E-002  2.776282649300000E-002  2.818240788370000E-002  2.860833043510000E-002 
 2.904068998150000E-002  2.947958380560000E-002  2.992511066050000E-002  3.037737079160000E-002 
 3.083646595920000E-002  3.130249946180000E-002  3.177557615880000E-002  3.225580249450000E-002 
 3.274328652180000E-002  3.323813792670000E-002  3.374046805290000E-002  3.425038992680000E-002 
 3.476801828290000E-002  3.529346958970000E-002  3.582686207610000E-002  3.636831575770000E-002 
 3.691795246370000E-002  3.747589586480000E-002  3.804227150050000E-002  3.861720680780000E-002 
 3.920083114960000E-002  3.979327584370000E-002  4.039467419280000E-002  4.100516151400000E-002 
 4.162487516960000E-002  4.225395459760000E-002  4.289254134370000E-002  4.354077909260000E-002 
 4.419881370040000E-002  4.486679322780000E-002  4.554486797300000E-002  4.623319050560000E-002 
 4.693191570110000E-002  4.764120077560000E-002  4.836120532130000E-002  4.909209134220000E-002 
 4.983402329080000E-002  5.058716810480000E-002  5.135169524510000E-002  5.212777673350000E-002 
 5.291558719160000E-002  5.371530388000000E-002  5.452710673830000E-002  5.535117842580000E-002 
 5.618770436190000E-002  5.703687276850000E-002  5.789887471220000E-002  5.877390414690000E-002 
 5.966215795790000E-002  6.056383600630000E-002  6.147914117320000E-002  6.240827940630000E-002 
 6.335145976550000E-002  6.430889447040000E-002  6.528079894790000E-002  6.626739188060000E-002 
 6.726889525599999E-002  6.828553441660000E-002  6.931753811060000E-002  7.036513854310000E-002 
 7.142857142860000E-002  7.250807604400000E-002  7.360389528239999E-002  7.471627570780000E-002 
 7.584546761039999E-002  7.699172506320000E-002  7.815530597890000E-002  7.933647216830000E-002 
 8.053548939850000E-002  8.175262745370000E-002  8.298816019490000E-002  8.424236562220000E-002 
 8.551552593730000E-002  8.680792760640001E-002  8.811986142550000E-002  8.945162258510000E-002 
 9.080351073720000E-002  9.217583006230000E-002  9.356888933809999E-002  9.498300200870000E-002 
 9.641848625540000E-002  9.787566506839999E-002  9.935486631880000E-002  1.008564228330000E-001 
 1.023806724690000E-001  1.039279581870000E-001  1.054986281340000E-001  1.070930357180000E-001 
 1.087115396870000E-001  1.103545042110000E-001  1.120222989640000E-001  1.137152992060000E-001 
 1.154338858710000E-001  1.171784456470000E-001  1.189493710680000E-001  1.207470605990000E-001 
 1.225719187270000E-001  1.244243560550000E-001  1.263047893880000E-001  1.282136418310000E-001 
 1.301513428850000E-001  1.321183285400000E-001  1.341150413760000E-001  1.361419306620000E-001 
 1.381994524570000E-001  1.402880697120000E-001  1.424082523750000E-001  1.445604774940000E-001 
 1.467452293320000E-001  1.489629994650000E-001  1.512142869010000E-001  1.534995981900000E-001 
 1.558194475360000E-001  1.581743569150000E-001  1.605648561910000E-001  1.629914832380000E-001 
 1.654547840560000E-001  1.679553128980000E-001  1.704936323950000E-001  1.730703136780000E-001 
 1.756859365110000E-001  1.783410894220000E-001  1.810363698300000E-001  1.837723841850000E-001 
 1.865497481020000E-001  1.893690864990000E-001  1.922310337390000E-001  1.951362337730000E-001 
 1.980853402830000E-001  2.010790168300000E-001  2.041179370050000E-001  2.072027845760000E-001 
 2.103342536480000E-001  2.135130488140000E-001  2.167398853170000E-001  2.200154892080000E-001 
 2.233405975130000E-001  2.267159583950000E-001  2.301423313230000E-001  2.336204872480000E-001 
 2.371512087670000E-001  2.407352903090000E-001  2.443735383060000E-001  2.480667713810000E-001 
 2.518158205260000E-001  2.556215292930000E-001  2.594847539820000E-001  2.634063638360000E-001 
 2.673872412330000E-001  2.714282818870000E-001  2.755303950500000E-001  2.796945037140000E-001 
 2.839215448210000E-001  2.882124694740000E-001  2.925682431480000E-001  2.969898459110000E-001 
 3.014782726430000E-001  3.060345332570000E-001  3.106596529330000E-001  3.153546723410000E-001 
 3.201206478810000E-001  3.249586519180000E-001  3.298697730210000E-001  3.348551162160000E-001 
 3.399158032240000E-001  3.450529727220000E-001  3.502677805950000E-001  3.555614001960000E-001 
 3.609350226120000E-001  3.663898569310000E-001  3.719271305130000E-001  3.775480892690000E-001 
 3.832539979370000E-001  3.890461403720000E-001  3.949258198300000E-001  4.008943592640000E-001 
 4.069531016190000E-001  4.131034101400000E-001  4.193466686700000E-001  4.256842819700000E-001 
 4.321176760290000E-001  4.386482983890000E-001  4.452776184660000E-001  4.520071278860000E-001 
 4.588383408160000E-001  4.657727943090000E-001  4.728120486460000E-001  4.799576876880000E-001 
 4.872113192350000E-001  4.945745753840000E-001  5.020491128990000E-001  5.096366135830001E-001 
 5.173387846540000E-001  5.251573591349999E-001  5.330940962370000E-001  5.411507817600000E-001 
 5.493292284910000E-001  5.576312766170000E-001  5.660587941320000E-001  5.746136772640000E-001 
 5.832978508980000E-001  5.921132690090000E-001  6.010619151030000E-001  6.101458026640000E-001 
 6.193669756050000E-001  6.287275087280000E-001  6.382295081930000E-001  6.478751119900000E-001 
 6.576664904200000E-001  6.676058465850000E-001  6.776954168829999E-001  6.879374715080000E-001 
 6.983343149660000E-001  7.088882865920000E-001  7.196017610720000E-001  7.304771489850000E-001 
 7.415168973380000E-001  7.527234901210000E-001  7.640994488650000E-001  7.756473332090000E-001 
 7.873697414740000E-001  7.992693112540000E-001  8.113487200000000E-001  8.236106856310000E-001 
 8.360579671410000E-001  8.486933652210000E-001  8.615197228890000E-001  8.745399261290000E-001 
 8.877569045410000E-001  9.011736320030000E-001  9.147931273330000E-001  9.286184549760000E-001 
 9.426527256900000E-001  9.568990972430000E-001  9.713607751310001E-001  9.860410132910000E-001 
 1.000943114840000E+000  1.016070432810000E+000  1.031426370910000E+000  1.047014384300000E+000 
 1.062837980350000E+000  1.078900719420000E+000  1.095206215710000E+000  1.111758138010000E+000 
 1.128560210590000E+000  1.145616213980000E+000  1.162929985840000E+000  1.180505421860000E+000 
 1.198346476580000E+000  1.216457164310000E+000  1.234841560040000E+000  1.253503800330000E+000 
 1.272448084260000E+000  1.291678674380000E+000  1.311199897640000E+000  1.331016146420000E+000 
 1.351131879450000E+000  1.371551622850000E+000  1.392279971150000E+000  1.413321588310000E+000 
 1.434681208800000E+000  1.456363638610000E+000  1.478373756380000E+000  1.500716514490000E+000 
 1.523396940140000E+000  1.546420136540000E+000  1.569791283980000E+000  1.593515641090000E+000 
 1.617598545940000E+000  1.642045417290000E+000  1.666861755780000E+000  1.692053145200000E+000 
 1.717625253720000E+000  1.743583835160000E+000  1.769934730330000E+000  1.796683868270000E+000 
 1.823837267670000E+000  1.851401038140000E+000  1.879381381660000E+000  1.907784593920000E+000 
 1.936617065760000E+000  1.965885284610000E+000  1.995595835950000E+000  2.025755404760000E+000 
 2.056370777090000E+000  2.087448841520000E+000  2.118996590740000E+000  2.151021123140000E+000 
 2.183529644360000E+000  2.216529468970000E+000  2.250028022050000E+000  2.284032840940000E+000 
 2.318551576850000E+000  2.353591996640000E+000  2.389161984570000E+000  2.425269544020000E+000 
 2.461922799350000E+000  2.499129997690000E+000  2.536899510830000E+000  2.575239837060000E+000 
 2.614159603120000E+000  2.653667566120000E+000  2.693772615510000E+000  2.734483775110000E+000 
 2.775810205100000E+000  2.817761204090000E+000  2.860346211230000E+000  2.903574808350000E+000 
 2.947456722040000E+000  2.992001825940000E+000  3.037220142860000E+000  3.083121847130000E+000 
 3.129717266830000E+000  3.177016886110000E+000  3.225031347590000E+000  3.273771454740000E+000 
 3.323248174270000E+000  3.373472638660000E+000  3.424456148630000E+000  3.476210175680000E+000 
 3.528746364680000E+000  3.582076536500000E+000  3.636212690660000E+000  3.691167008010000E+000 
 3.746951853510000E+000  3.803579778980000E+000  3.861063525950000E+000  3.919416028510000E+000 
 3.978650416200000E+000  4.038780017020000E+000  4.099818360390000E+000  4.161779180180000E+000 
 4.224676417850000E+000  4.288524225530000E+000  4.353336969260000E+000  4.419129232170000E+000 
 4.485915817800000E+000  4.553711753420000E+000  4.622532293390000E+000  4.692392922620000E+000 
 4.763309360070000E+000  4.835297562210000E+000  4.908373726700000E+000  4.982554295990000E+000 
 5.057855961020000E+000  5.134295664980000E+000  5.211890607120000E+000  5.290658246630000E+000 
 5.370616306570000E+000  5.451782777840000E+000  5.534175923230000E+000  5.617814281560000E+000 
 5.702716671790000E+000  5.788902197340000E+000  5.876390250300000E+000  5.965200515860000E+000 
 6.055352976700000E+000  6.146867917510000E+000  6.239765929530000E+000  6.334067915210000E+000 
 6.429795092890000E+000  6.526969001600000E+000  6.625611505870000E+000  6.725744800670000E+000 
 6.827391416430000E+000  6.930574224070000E+000  7.035316440140000E+000  7.141641632090000E+000 
 7.249573723540000E+000  7.359136999660000E+000  7.470356112650000E+000  7.583256087280000E+000 
 7.697862326530000E+000  7.814200617270000E+000  7.932297136120000E+000  8.052178455290001E+000 
 8.173871548579999E+000  8.297403797459999E+000  8.422802997190001E+000  8.550097363130000E+000 
 8.679315537050000E+000  8.810486593580000E+000  8.943640046770000E+000  9.078805856700001E+000 
 9.216014436240000E+000  9.355296657920000E+000  9.496683860810000E+000  9.640207857629999E+000 
 9.785900941890000E+000  9.933795895150000E+000  1.008392599440000E+001  1.023632501950000E+001 
 1.039102726100000E+001  1.054806752740000E+001  1.070748115350000E+001  1.086930400800000E+001 
 1.103357250180000E+001  1.120032359600000E+001  1.136959481020000E+001  1.154142423130000E+001 
 1.171585052140000E+001  1.189291292740000E+001  1.207265128890000E+001  1.225510604790000E+001 
 1.244031825750000E+001  1.262832959120000E+001  1.281918235230000E+001  1.301291948350000E+001 
 1.320958457650000E+001  1.340922188170000E+001  1.361187631850000E+001  1.381759348480000E+001 
 1.402641966800000E+001  1.423840185480000E+001  1.445358774200000E+001  1.467202574750000E+001 
 1.489376502060000E+001  1.511885545380000E+001  1.534734769320000E+001  1.557929315050000E+001 
 1.581474401460000E+001  1.605375326280000E+001  1.629637467310000E+001  1.654266283660000E+001 
 1.679267316890000E+001  1.704646192360000E+001  1.730408620410000E+001  1.756560397710000E+001 
 1.783107408500000E+001  1.810055625980000E+001  1.837411113610000E+001  1.865180026500000E+001 
 1.893368612760000E+001  1.921983214940000E+001  1.951030271460000E+001  1.980516318020000E+001 
 2.010447989110000E+001  2.040832019480000E+001  2.071675245660000E+001  2.102984607510000E+001 
 2.134767149760000E+001  2.167030023640000E+001  2.199780488410000E+001  2.233025913070000E+001 
 2.266773777980000E+001  2.301031676560000E+001  2.335807316970000E+001  2.371108523880000E+001 
 2.406943240210000E+001  2.443319528930000E+001  2.480245574850000E+001  2.517729686480000E+001 
 2.555780297920000E+001  2.594405970710000E+001  2.633615395780000E+001  2.673417395430000E+001 
 2.713820925270000E+001  2.754835076270000E+001  2.796469076780000E+001  2.838732294640000E+001 
 2.881634239230000E+001  2.925184563690000E+001  2.969393067010000E+001  3.014269696310000E+001 
 3.059824548990000E+001  3.106067875120000E+001  3.153010079610000E+001  3.200661724680000E+001 
 3.249033532140000E+001  3.298136385850000E+001  3.347981334160000E+001  3.398579592400000E+001 
 3.449942545380000E+001  3.502081749990000E+001  3.555008937760000E+001  3.608736017550000E+001 
 3.663275078160000E+001  3.718638391120000E+001  3.774838413410000E+001  3.831887790270000E+001 
 3.889799358040000E+001  3.948586147080000E+001  4.008261384660000E+001  4.068838497970000E+001 
 4.130331117100000E+001  4.192753078160000E+001  4.256118426340000E+001  4.320441419130000E+001 
 4.385736529470000E+001  4.452018449030000E+001  4.519302091520000E+001  4.587602596040000E+001 
 4.656935330510000E+001  4.727315895070000E+001  4.798760125650000E+001  4.871284097500000E+001 
 4.944904128830000E+001  5.019636784450000E+001  5.095498879520000E+001  5.172507483340000E+001 
 5.250679923160000E+001  5.330033788110000E+001  5.410586933160000E+001  5.492357483090000E+001 
 5.575363836620000E+001  5.659624670540000E+001  5.745158943890000E+001  5.831985902230000E+001 
 5.920125082010000E+001  6.009596314910000E+001  6.100419732330000E+001  6.192615769930000E+001 
 6.286205172200000E+001  6.381208997150000E+001  6.477648621050000E+001  6.575545743220000E+001 
 6.674922390920000E+001  6.775800924319999E+001  6.878204041510000E+001  6.982154783630000E+001 
 7.087676540040000E+001  7.194793053559999E+001  7.303528425880000E+001  7.413907122900000E+001 
 7.525953980300000E+001  7.639694209100000E+001  7.755153401330000E+001  7.872357535790000E+001 
 7.991332983900000E+001  8.112106515649999E+001  8.234705305599999E+001  8.359156938970000E+001 
 8.485489417920000E+001  8.613731167790000E+001  8.743911043510001E+001  8.876058336110000E+001 
 9.010202779270000E+001  9.146374556080001E+001  9.284604305740000E+001  9.424923130550000E+001 
 9.567362602820000E+001  9.711954772040001E+001  9.858732172050000E+001
    </PP_R>
    <PP_RAB type="real" size="883" columns="4">
 2.655805903570000E-006  2.695943269800000E-006  2.736687234640000E-006  2.778046965650000E-006 
 2.820031768940000E-006  2.862651091290000E-006  2.905914522200000E-006  2.949831796140000E-006 
 2.994412794680000E-006  3.039667548730000E-006  3.085606240810000E-006  3.132239207300000E-006 
 3.179576940840000E-006  3.227630092590000E-006  3.276409474740000E-006  3.325926062840000E-006 
 3.376190998330000E-006  3.427215591050000E-006  3.479011321730000E-006  3.531589844630000E-006 
 3.584962990150000E-006  3.639142767460000E-006  3.694141367250000E-006  3.749971164440000E-006 
 3.806644720950000E-006  3.864174788590000E-006  3.922574311850000E-006  3.981856430890000E-006 
 4.042034484420000E-006  4.103122012760000E-006  4.165132760870000E-006  4.228080681420000E-006 
 4.291979937950000E-006  4.356844908090000E-006  4.422690186700000E-006  4.489530589270000E-006 
 4.557381155160000E-006  4.626257151040000E-006  4.696174074290000E-006  4.767147656520000E-006 
 4.839193867080000E-006  4.912328916690000E-006  4.986569261020000E-006  5.061931604470000E-006 
 5.138432903890000E-006  5.216090372390000E-006  5.294921483230000E-006  5.374943973740000E-006 
 5.456175849320000E-006  5.538635387490000E-006  5.622341141980000E-006  5.707311946950000E-006 
 5.793566921190000E-006  5.881125472420000E-006  5.970007301700000E-006  6.060232407810000E-006 
 6.151821091770000E-006  6.244793961440000E-006  6.339171936090000E-006  6.434976251170000E-006 
 6.532228463050000E-006  6.630950453900000E-006  6.731164436570000E-006  6.832892959640000E-006 
 6.936158912450000E-006  7.040985530280000E-006  7.147396399560000E-006  7.255415463180000E-006 
 7.365067025890000E-006  7.476375759750000E-006  7.589366709700000E-006  7.704065299170000E-006 
 7.820497335839999E-006  7.938689017410001E-006  8.058666937490000E-006  8.180458091640001E-006 
 8.304089883360001E-006  8.429590130339999E-006  8.556987070670001E-006  8.686309369179999E-006 
 8.817586123950001E-006  8.950846872799999E-006  9.086121599949999E-006  9.223440742800000E-006 
 9.362835198720000E-006  9.504336332070000E-006  9.647975981179999E-006  9.793786465600001E-006 
 9.941800593280000E-006  1.009205166800000E-005  1.024457349700000E-005  1.039940039820000E-005 
 1.055656720840000E-005  1.071610929080000E-005  1.087806254290000E-005  1.104246340500000E-005 
 1.120934886800000E-005  1.137875648170000E-005  1.155072436370000E-005  1.172529120730000E-005 
 1.190249629100000E-005  1.208237948650000E-005  1.226498126840000E-005  1.245034272280000E-005 
 1.263850555690000E-005  1.282951210800000E-005  1.302340535350000E-005  1.322022892010000E-005 
 1.342002709400000E-005  1.362284483060000E-005  1.382872776480000E-005  1.403772222110000E-005 
 1.424987522400000E-005  1.446523450910000E-005  1.468384853290000E-005  1.490576648460000E-005 
 1.513103829660000E-005  1.535971465610000E-005  1.559184701620000E-005  1.582748760760000E-005 
 1.606668945050000E-005  1.630950636630000E-005  1.655599298990000E-005  1.680620478170000E-005 
 1.706019804050000E-005  1.731802991590000E-005  1.757975842100000E-005  1.784544244600000E-005 
 1.811514177080000E-005  1.838891707890000E-005  1.866682997090000E-005  1.894894297840000E-005 
 1.923531957800000E-005  1.952602420570000E-005  1.982112227120000E-005  2.012068017290000E-005 
 2.042476531240000E-005  2.073344611040000E-005  2.104679202110000E-005  2.136487354890000E-005 
 2.168776226340000E-005  2.201553081580000E-005  2.234825295560000E-005  2.268600354660000E-005 
 2.302885858400000E-005  2.337689521180000E-005  2.373019173970000E-005  2.408882766080000E-005 
 2.445288366970000E-005  2.482244168070000E-005  2.519758484570000E-005  2.557839757370000E-005 
 2.596496554900000E-005  2.635737575100000E-005  2.675571647390000E-005  2.716007734580000E-005 
 2.757054934970000E-005  2.798722484350000E-005  2.841019758100000E-005  2.883956273270000E-005 
 2.927541690780000E-005  2.971785817520000E-005  3.016698608600000E-005  3.062290169600000E-005 
 3.108570758810000E-005  3.155550789550000E-005  3.203240832530000E-005  3.251651618210000E-005 
 3.300794039220000E-005  3.350679152820000E-005  3.401318183360000E-005  3.452722524850000E-005 
 3.504903743470000E-005  3.557873580210000E-005  3.611643953530000E-005  3.666226961960000E-005 
 3.721634886940000E-005  3.777880195460000E-005  3.834975542960000E-005  3.892933776140000E-005 
 3.951767935850000E-005  4.011491260010000E-005  4.072117186630000E-005  4.133659356790000E-005 
 4.196131617750000E-005  4.259548026020000E-005  4.323922850570000E-005  4.389270576010000E-005 
 4.455605905840000E-005  4.522943765800000E-005  4.591299307180000E-005  4.660687910280000E-005 
 4.731125187820000E-005  4.802626988490000E-005  4.875209400500000E-005  4.948888755180000E-005 
 5.023681630710000E-005  5.099604855810000E-005  5.176675513510000E-005  5.254910945040000E-005 
 5.334328753700000E-005  5.414946808840000E-005  5.496783249850000E-005  5.579856490280000E-005 
 5.664185221970000E-005  5.749788419220000E-005  5.836685343130000E-005  5.924895545860000E-005 
 6.014438875090000E-005  6.105335478430000E-005  6.197605808020000E-005  6.291270625060000E-005 
 6.386351004530000E-005  6.482868339920001E-005  6.580844348040000E-005  6.680301073889999E-005 
 6.781260895680000E-005  6.883746529770001E-005  6.987781035870001E-005  7.093387822189999E-005 
 7.200590650689999E-005  7.309413642460000E-005  7.419881283140000E-005  7.532018428420001E-005 
 7.645850309610000E-005  7.761402539380000E-005  7.878701117470000E-005  7.997772436550001E-005 
 8.118643288160000E-005  8.241340868770000E-005  8.365892785839999E-005  8.492327064080000E-005 
 8.620672151740001E-005  8.750956927000000E-005  8.883210704480000E-005  9.017463241850000E-005 
 9.153744746500000E-005  9.292085882330000E-005  9.432517776679999E-005  9.575072027330000E-005 
 9.719780709579999E-005  9.866676383490000E-005  1.001579210120000E-004  1.016716141440000E-004 
 1.032081838180000E-004  1.047679757690000E-004  1.063513409570000E-004  1.079586356450000E-004 
 1.095902214810000E-004  1.112464655790000E-004  1.129277406020000E-004  1.146344248430000E-004 
 1.163669023120000E-004  1.181255628260000E-004  1.199108020900000E-004  1.217230217900000E-004 
 1.235626296840000E-004  1.254300396900000E-004  1.273256719850000E-004  1.292499530930000E-004 
 1.312033159850000E-004  1.331862001780000E-004  1.351990518270000E-004  1.372423238330000E-004 
 1.393164759410000E-004  1.414219748440000E-004  1.435592942880000E-004  1.457289151790000E-004 
 1.479313256900000E-004  1.501670213740000E-004  1.524365052710000E-004  1.547402880250000E-004 