<UPF version="2.0.1">
  <PP_INFO>
    Generated using FHI98PP, converted with fhi2upf.x v.5.0.2
    Author: unknown
    Generation date: unknown
    Pseudopotential type: SL
    Element: Zn
    Functional: PBE

    Suggested minimum cutoff for wavefunctions:   0. Ry
    Suggested minimum cutoff for charge density:   0. Ry
    The Pseudo was generated with a Scalar-Relativistic Calculation
    L component and cutoff radius for Local Potential:  0   0.0000

    Valence configuration: 
    nl pn  l   occ       Rcut    Rcut US       E pseu
    3d  3  2 10.00      0.000      0.000     0.000000
    4s  4  0  2.00      0.000      0.000     0.000000

    Generation configuration: not available.
    Comment:
    zinc, fhi98PP : Trouiller-Martins-type, GGA Perdew/Burke/Ernzerhof (1996), l= 0
  </PP_INFO>
  <!--                               -->
  <!-- END OF HUMAN READABLE SECTION -->
  <!--                               -->
  <PP_HEADER generated="Generated using FHI98PP, converted with fhi2upf.x v.5.0.2"
             author="unknown"
             date="unknown"
             comment="zinc, fhi98PP : Trouiller-Martins-type, GGA Perdew/Burke/Ernzerhof (1996), l= 0"
             element="Zn"
             pseudo_type="SL"
             relativistic="scalar"
             is_ultrasoft="F"
             is_paw="F"
             is_coulomb="F"
             has_so="F"
             has_wfc="F"
             has_gipaw="F"
             paw_as_gipaw="F"
             core_correction="F"
             functional="PBE"
             z_valence="1.200000000000000E+001"
             total_psenergy="0.000000000000000E+000"
             wfc_cutoff="0.000000000000000E+000"
             rho_cutoff="0.000000000000000E+000"
             l_max="1"
             l_max_rho="0"
             l_local="0"
             mesh_size="527"
             number_of_wfc="2"
             number_of_proj="1"/>
  <PP_MESH dx="2.439988682353512E-002" mesh="527" xmin="-5.075173815233843E+000" rmax="7.809837674256600E+001"
zmesh="3.000000000000000E+001">
    <PP_R type="real" size="527" columns="4">
 2.083333333333300E-004  2.134791666666700E-004  2.187521020833300E-004  2.241552790047900E-004 
 2.296919143962100E-004  2.353653046818000E-004  2.411788277074400E-004  2.471359447518100E-004 
 2.532402025871800E-004  2.594952355910800E-004  2.659047679101800E-004  2.724726156775600E-004 
 2.792026892848000E-004  2.860989957101400E-004  2.931656409041800E-004  3.004068322345100E-004 
 3.078268809907000E-004  3.154302049511700E-004  3.232213310134600E-004  3.312048978895000E-004 
 3.393856588673700E-004  3.477684846413900E-004  3.563583662120300E-004  3.651604178574700E-004 
 3.741798801785500E-004  3.834221232189600E-004  3.928926496624700E-004  4.025970981091300E-004 
 4.125412464324300E-004  4.227310152193100E-004  4.331724712952300E-004  4.438718313362200E-004 
 4.548354655702200E-004  4.660699015698100E-004  4.775818281385800E-004  4.893780992936000E-004 
 5.014657383461600E-004  5.138519420833100E-004  5.265440850527600E-004  5.395497239535700E-004 
 5.528766021352200E-004  5.665326542079600E-004  5.805260107669000E-004  5.948650032328400E-004 
 6.095581688126900E-004  6.246142555823600E-004  6.400422276952500E-004  6.558512707193199E-004 
 6.720507971060900E-004  6.886504517946100E-004  7.056601179539400E-004  7.230899228674000E-004 
 7.409502439622200E-004  7.592517149880900E-004  7.780052323482900E-004  7.972219615873000E-004 
 8.169133440385000E-004  8.370911036362500E-004  8.577672538960700E-004  8.789541050673000E-004 
 9.006642714624700E-004  9.229106789675900E-004  9.457065727380900E-004  9.690655250847200E-004 
 9.930014435543099E-004  1.017528579210100E-003  1.042661535116600E-003  1.068415275034000E-003 
 1.094805132327300E-003  1.121846819095800E-003  1.149556435527500E-003  1.177950479485000E-003 
 1.207045856328300E-003  1.236859888979600E-003  1.267410328237400E-003  1.298715363344800E-003 
 1.330793632819500E-003  1.363664235550100E-003  1.397346742168200E-003  1.431861206699700E-003 
 1.467228178505200E-003  1.503468714514300E-003  1.540604391762800E-003  1.578657320239300E-003 
 1.617650156049300E-003  1.657606114903700E-003  1.698548985941800E-003  1.740503145894600E-003 
 1.783493573598100E-003  1.827545864866000E-003  1.872686247728200E-003  1.918941598047100E-003 
 1.966339455518900E-003  2.014908040070200E-003  2.064676268659900E-003  2.115673772495800E-003 
 2.167930914676500E-003  2.221478808269000E-003  2.276349334833200E-003  2.332575163403600E-003 
 2.390189769939700E-003  2.449227457257200E-003  2.509723375451400E-003  2.571713542825100E-003 
 2.635234867332800E-003  2.700325168556000E-003  2.767023200219300E-003  2.835368673264700E-003 
 2.905402279494400E-003  2.977165715797900E-003  3.050701708978100E-003  3.126054041189800E-003 
 3.203267576007200E-003  3.282388285134600E-003  3.363463275777400E-003  3.446540818689100E-003 
 3.531670376910700E-003  3.618902635220400E-003  3.708289530310400E-003  3.799884281709000E-003 
 3.893741423467300E-003  3.989916836626900E-003  4.088467782491600E-003  4.189452936719100E-003 
 4.292932424256100E-003  4.398967855135200E-003  4.507622361157100E-003  4.618960633477600E-003 
 4.733048961124500E-003  4.849955270464300E-003  4.969749165644800E-003  5.092501970036200E-003 
 5.218286768696100E-003  5.347178451882900E-003  5.479253759644400E-003  5.614591327507600E-003 
 5.753271733297100E-003  5.895377545109500E-003  6.040993370473700E-003  6.190205906724400E-003 
 6.343103992620500E-003  6.499778661238200E-003  6.660323194170800E-003  6.824833177066800E-003 
 6.993406556540400E-003  7.166143698486900E-003  7.343147447839500E-003  7.524523189801200E-003 
 7.710378912589300E-003  7.900825271730199E-003  8.095975655942000E-003  8.295946254643700E-003 
 8.500856127133400E-003  8.710827273473601E-003  8.925984707128401E-003  9.146456529394499E-003 
 9.372374005670500E-003  9.603871643610601E-003  9.841087273207800E-003  1.008416212885600E-002 
 1.033324093343900E-002  1.058847198449500E-002  1.085000724251200E-002  1.111800242140200E-002 
 1.139261708121000E-002  1.167401472311600E-002  1.196236288677700E-002  1.225783325008100E-002 
 1.256060173135800E-002  1.287084859412200E-002  1.318875855439700E-002  1.351452089069100E-002 
 1.384832955669100E-002  1.419038329674100E-002  1.454088576417000E-002  1.490004564254500E-002 
 1.526807676991600E-002  1.564519826613300E-002  1.603163466330700E-002  1.642761603949000E-002 
 1.683337815566600E-002  1.724916259611100E-002  1.767521691223500E-002  1.811179476996700E-002 
 1.855915610078500E-002  1.901756725647400E-002  1.948730116770900E-002  1.996863750655200E-002 
 2.046186285296400E-002  2.096727086543200E-002  2.148516245580800E-002  2.201584596846600E-002 
 2.255963736388700E-002  2.311686040677600E-002  2.368784685882300E-002  2.427293667623600E-002 
 2.487247821213900E-002  2.548682842397900E-002  2.611635308605100E-002  2.676142700727600E-002 
 2.742243425435600E-002  2.809976838043900E-002  2.879383265943600E-002  2.950504032612400E-002 
 3.023381482217900E-002  3.098059004828700E-002  3.174581062247900E-002  3.252993214485500E-002 
 3.333342146883200E-002  3.415675697911300E-002  3.500042887649700E-002  3.586493946974600E-002 
 3.675080347464900E-002  3.765854832047300E-002  3.858871446398800E-002  3.954185571124900E-002 
 4.051853954731700E-002  4.151934747413500E-002  4.254487535674700E-002  4.359573377805800E-002 
 4.467254840237600E-002  4.577596034791500E-002  4.690662656850800E-002  4.806522024475100E-002 
 4.925243118479600E-002  5.046896623506000E-002  5.171554970106600E-002  5.299292377868300E-002 
 5.430184899601600E-002  5.564310466621800E-002  5.701748935147300E-002  5.842582133845500E-002 
 5.986893912551500E-002  6.134770192191500E-002  6.286299015938600E-002  6.441570601632300E-002 
 6.600677395492600E-002  6.763714127161299E-002  6.930777866102200E-002  7.101968079394901E-002 
 7.277386690955900E-002  7.457138142222500E-002  7.641329454335399E-002  7.830070291857499E-002 
 8.023473028066400E-002  8.221652811859700E-002  8.424727636312600E-002  8.632818408929500E-002 
 8.846049023630100E-002  9.064546434513700E-002  9.288440731446200E-002  9.517865217512900E-002 
 9.752956488385500E-002  9.993854513648601E-002  1.024070272013600E-001  1.049364807732300E-001 
 1.075284118483300E-001  1.101843636209800E-001  1.129059174024200E-001  1.156946935622600E-001 
 1.185523524932500E-001  1.214805955998300E-001  1.244811663111500E-001  1.275558511190300E-001 
 1.307064806416700E-001  1.339349307135200E-001  1.372431235021500E-001  1.406330286526500E-001 
 1.441066644603700E-001  1.476660990725400E-001  1.513134517196300E-001  1.550508939771100E-001 
 1.588806510583400E-001  1.628050031394800E-001  1.668262867170300E-001  1.709468959989400E-001 
 1.751692843301100E-001  1.794959656530700E-001  1.839295160047000E-001  1.884725750500100E-001 
 1.931278476537500E-001  1.978981054908000E-001  2.027861886964200E-001  2.077950075572200E-001 
 2.129275442438900E-001  2.181868545867100E-001  2.235760698950000E-001  2.290983988214100E-001 
 2.347571292723000E-001  2.405556303653200E-001  2.464973544353500E-001  2.525858390899000E-001 
 2.588247093154200E-001  2.652176796355100E-001  2.717685563225100E-001  2.784812396636700E-001 
 2.853597262833700E-001  2.924081115225600E-001  2.996305918771700E-001  3.070314674965400E-001 
 3.146151447437000E-001  3.223861388188700E-001  3.303490764477000E-001  3.385086986359600E-001 
 3.468698634922600E-001  3.554375491205200E-001  3.642168565838000E-001  3.732130129414200E-001 
 3.824313743610700E-001  3.918774293077900E-001  4.015568018116900E-001  4.114752548164400E-001 
 4.216386936104100E-001  4.320531693425900E-001  4.427248826253500E-001  4.536601872261900E-001 
 4.648655938506800E-001  4.763477740187900E-001  4.881135640370600E-001  5.001699690687700E-001 
 5.125241673047700E-001  5.251835142372000E-001  5.381555470388600E-001  5.514479890507200E-001 
 5.650687543802700E-001  5.790259526134600E-001  5.933278936430100E-001  6.079830926160000E-001 
 6.230002750036100E-001  6.383883817962001E-001  6.541565748265700E-001  6.703142422247800E-001 
 6.868710040077400E-001  7.038367178067300E-001  7.212214847365500E-001  7.390356554095500E-001 
 7.572898360981600E-001  7.759948950497900E-001  7.951619689575200E-001  8.148024695907700E-001 
 8.349280905896600E-001  8.555508144272200E-001  8.766829195435800E-001  8.983369876563000E-001 
 9.205259112514100E-001  9.432629012593200E-001  9.665614949204300E-001  9.904355638449600E-001 
 1.014899322271900E+000  1.039967335532000E+000  1.065654528719700E+000  1.091976195579100E+000 
 1.118948007609900E+000  1.146586023397800E+000  1.174906698175800E+000  1.203926893620700E+000 
 1.233663887893100E+000  1.264135385924100E+000  1.295359529956400E+000  1.327354910346300E+000 
 1.360140576631900E+000  1.393736048874700E+000  1.428161329281900E+000  1.463436914115200E+000 
 1.499583805893800E+000  1.536623525899400E+000  1.574578126989100E+000  1.613470206725700E+000 
 1.653322920831900E+000  1.694159996976400E+000  1.736005748901700E+000  1.778885090899600E+000 
 1.822823552644800E+000  1.867847294395100E+000  1.913983122566700E+000  1.961258505694100E+000 
 2.009701590784700E+000  2.059341220077100E+000  2.110206948213000E+000  2.162329059833900E+000 
 2.215738587611800E+000  2.270467330725800E+000  2.326547873794700E+000  2.384013606277500E+000 
 2.442898742352500E+000  2.503238341288600E+000  2.565068328318500E+000  2.628425516027900E+000 
 2.693347626273800E+000  2.759873312642800E+000  2.828042183465000E+000  2.897894825396600E+000 
 2.969472827583900E+000  3.042818806425300E+000  3.117976430944000E+000  3.194990448788300E+000 
 3.273906712873300E+000  3.354772208681300E+000  3.437635082235700E+000  3.522544668767000E+000 
 3.609551522085500E+000  3.698707444681000E+000  3.790065518564600E+000  3.883680136873200E+000 
 3.979607036254000E+000  4.077903330049400E+000  4.178627542301700E+000  4.281839642596500E+000 
 4.387601081768600E+000  4.495974828488300E+000  4.607025406752000E+000  4.720818934298800E+000 
 4.837423161975900E+000  4.956907514076700E+000  5.079343129674400E+000  5.204802904977400E+000 
 5.333361536730300E+000  5.465095566687600E+000  5.600083427184800E+000  5.738405487836200E+000 
 5.880144103385800E+000  6.025383662739400E+000  6.174210639209100E+000  6.326713641997500E+000 
 6.482983468954900E+000  6.643113160638100E+000  6.807198055705800E+000  6.975335847681700E+000 
 7.147626643119500E+000  7.324173021204500E+000  7.505080094828300E+000  7.690455573170500E+000 
 7.880409825827900E+000  8.075055948525801E+000  8.274509830454400E+000  8.478890223266600E+000 
 8.688318811781301E+000  8.902920286432300E+000  9.122822417507200E+000  9.348156131219600E+000 
 9.579055587660701E+000  9.815658260675900E+000  1.005810501971500E+001  1.030654021370200E+001 
 1.056111175698000E+001  1.082197121737700E+001  1.108927390644700E+001  1.136317897193600E+001 
 1.164384949254300E+001  1.193145257500900E+001  1.222615945361100E+001  1.252814559211500E+001 
 1.283759078824100E+001  1.315467928071000E+001  1.347959985894400E+001  1.381254597546000E+001 
 1.415371586105400E+001  1.450331264282200E+001  1.486154446509900E+001  1.522862461338700E+001 
 1.560477164133800E+001  1.599020950087900E+001  1.638516767555100E+001  1.678988131713700E+001 
 1.720459138567000E+001  1.762954479289600E+001  1.806499454928100E+001  1.851119991464800E+001 
 1.896842655254000E+001  1.943694668838700E+001  1.991703927159000E+001  2.040899014159900E+001 
 2.091309219809600E+001  2.142964557538900E+001  2.195895782110100E+001  2.250134407928200E+001 
 2.305712727804100E+001  2.362663832180800E+001  2.421021628835700E+001  2.480820863067900E+001 
 2.542097138385700E+001  2.604886937703900E+001  2.669227645065100E+001  2.735157567898200E+001 
 2.802715959825300E+001  2.871943044033000E+001  2.942880037220600E+001  3.015569174140000E+001 
 3.090053732741200E+001  3.166378059939900E+001  3.244587598020500E+001  3.324728911691600E+001 
 3.406849715810400E+001  3.490998903790900E+001  3.577226576714500E+001  3.665584073159300E+001 
 3.756123999766400E+001  3.848900262560600E+001  3.943968099045900E+001  4.041384111092300E+001 
 4.141206298636300E+001  4.243494094212600E+001  4.348308398339600E+001  4.455711615778600E+001 
 4.565767692688400E+001  4.678542154697800E+001  4.794102145918800E+001  4.912516468923000E+001 
 5.033855625705400E+001  5.158191859660300E+001  5.285599198593900E+001  5.416153498799200E+001 
 5.549932490219500E+001  5.687015822728000E+001  5.827485113549300E+001  5.971423995854000E+001 
 6.118918168551600E+001  6.270055447314800E+001  6.424925816863500E+001  6.583621484539999E+001 
 6.746236935208201E+001  6.912868987507800E+001  7.083616851499200E+001  7.258582187731299E+001 
 7.437869167768200E+001  7.621584536212100E+001  7.809837674256600E+001
    </PP_R>
    <PP_RAB type="real" size="527" columns="4">
 5.083309754903069E-006  5.208867505849340E-006  5.337526533243653E-006  5.469363438614814E-006 
 5.604456715548641E-006  5.742886796422781E-006  5.884736100294412E-006  6.030089081971592E-006 
 6.179032282296298E-006  6.331654379668935E-006  6.488046242846766E-006  6.648300985045045E-006 
 6.812514019375762E-006  6.980783115654475E-006  7.153208458611130E-006  7.329892707538747E-006 
 7.510941057414895E-006  7.696461301533034E-006  7.886563895680808E-006  8.081362023904306E-006 
 8.280971665894726E-006  8.485511666042227E-006  8.695103804193415E-006  8.909872868157061E-006 
 9.129946728000552E-006  9.355456412182162E-006  9.586536185563103E-006  9.823323629346438E-006 
 1.006595972299140E-005  1.031458892814927E-005  1.056935927467463E-005  1.083042244875904E-005 
 1.109793388324327E-005  1.137205285015952E-005  1.165294255555835E-005  1.194077023668057E-005 
 1.223570726152678E-005  1.253792923088649E-005  1.284761608288919E-005  1.316495220013673E-005 
 1.349012651948003E-005  1.382333264451118E-005  1.416476896083069E-005  1.451463875416315E-005 
 1.487315033139095E-005  1.524051714457622E-005  1.561695791804740E-005  1.600269677862310E-005 
 1.639796338905516E-005  1.680299308476481E-005  1.721802701395858E-005  1.764331228120330E-005 
 1.807910209454890E-005  1.852565591628434E-005  1.898323961741642E-005  1.945212563596679E-005 
 1.993259313917501E-005  2.042492818971261E-005  2.092942391599862E-005  2.144638068672372E-005 
 2.197610628968598E-005  2.251891611504115E-005  2.307513334308268E-005  2.364508913665680E-005 
 2.422912283833216E-005  2.482758217243893E-005  2.544082345209843E-005  2.606921179136575E-005 
 2.671312132261151E-005  2.737293541928040E-005  2.804904692413745E-005  2.874185838316293E-005 
 2.945178228522756E-005  3.017924130767246E-005  3.092466856797206E-005  3.168850788159941E-005 
 3.247121402627695E-005  3.327325301272498E-005  3.409510236213959E-005  3.493725139048311E-005 
 3.580020149982847E-005  3.668446647687476E-005  3.759057279885349E-005  3.851905994698416E-005 
 3.947048072767685E-005  4.044540160165004E-005  4.144440302121027E-005  4.246807977583507E-005 
 4.351704134629584E-005  4.459191226755002E-005  4.569333250055873E-005  4.682195781332287E-005 
 4.797846017131283E-005  4.916352813754385E-005  5.037786728254036E-005  5.162220060441912E-005 
 5.289726895934958E-005  5.420383150264528E-005  5.554266614075953E-005  5.691456999443679E-005 
 5.832035987330013E-005  5.976087276217039E-005  6.123696631939471E-005  6.274951938748498E-005 
 6.429943251635391E-005  6.588762849950979E-005  6.751505292344688E-005  6.918267473065561E-005 
 7.089148679650432E-005  7.264250652037768E-005  7.443677643143082E-005  7.627536480928571E-005 
 7.815936632007537E-005  8.008990266818178E-005  8.206812326408526E-005  8.409520590870812E-005 
 8.617235749465270E-005  8.830081472477077E-005  9.048184484847397E-005  9.271674641622966E-005 
 9.500685005271266E-005  9.735351924901363E-005  9.975815117446466E-005  1.022221775084729E-004 
 1.047470652929331E-004  1.073343178056679E-004  1.099854754554694E-004  1.127021166992175E-004 
 1.154858589816883E-004  1.183383596985366E-004  1.212613171830912E-004  1.242564717175129E-004 
 1.273256065689356E-004  1.304705490511885E-004  1.336931716127527E-004  1.369953929515873E-004 
 1.403791791574930E-004  1.438465448826821E-004  1.473995545412842E-004  1.510403235384540E-004 
 1.547710195298539E-004  1.585938637122407E-004  1.625111321459335E-004  1.665251571099375E-004 
 1.706383284905542E-004  1.748530952042697E-004  1.791719666558146E-004  1.835975142322148E-004 
 1.881323728337507E-004  1.927792424427430E-004  1.975408897310803E-004  2.024201497074364E-004 
 2.074199274052101E-004  2.125431996121189E-004  2.177930166425383E-004  2.231725041536096E-004 
 2.286848650062027E-004  2.343333811718569E-004  2.401214156868022E-004  2.460524146542654E-004 
 2.521299092962320E-004  2.583575180558503E-004  2.647389487518292E-004  2.712780007859982E-004 
 2.779785674053970E-004  2.848446380203131E-004  2.918803005794157E-004  2.990897440037421E-004 
 3.064772606806345E-004  3.140472490194329E-004  3.218042160702175E-004  3.297527802071615E-004 
 3.378976738782767E-004  3.462437464230636E-004  3.547959669597010E-004  3.635594273436057E-004 
 3.725393451989961E-004  3.817410670254131E-004  3.911700713809534E-004  4.008319721440463E-004 
 4.107325218560188E-004  4.208776151458636E-004  4.312732922399679E-004  4.419257425582901E-004 
 4.528413083994753E-004  4.640264887169329E-004  4.754879429882434E-004  4.872324951800673E-004 
 4.992671378110191E-004  5.115990361149461E-004  5.242355323069811E-004  5.371841499549524E-004 
 5.504525984588371E-004  5.640487776407945E-004  5.779807824485132E-004  5.922569077749932E-004 
 6.068856533970348E-004  6.218757290359456E-004  6.372360595431266E-004  6.529757902138307E-004 
 6.691042922321192E-004  6.856311682502624E-004  7.025662581060477E-004  7.199196446812654E-004 
 7.377016599048862E-004  7.559228909045413E-004  7.745941863098666E-004  7.937266627117391E-004 
 8.133317112806967E-004  8.334210045493507E-004  8.540065033617174E-004  8.751004639947401E-004 
 8.967154454554169E-004  9.188643169581699E-004  9.415602655870199E-004  9.648168041470314E-004 
 9.886477792094670E-004  1.013067379355923E-003  1.038090143626035E-003  1.063730970173582E-003 
 1.090005125136869E-003  1.116928251727757E-003  1.144516379545421E-003  1.172785934120213E-003 
 1.201753746692974E-003  1.231437064236279E-003  1.261853559722916E-003  1.293021342648088E-003 
 1.324958969811485E-003  1.357685456365838E-003  1.391220287138060E-003  1.425583428230385E-003 
 1.460795338907680E-003  1.496876983778694E-003  1.533849845278020E-003  1.571735936456392E-003 
 1.610557814086860E-003  1.650338592094813E-003  1.691101955319559E-003  1.732872173615947E-003 
 1.775674116304247E-003  1.819533266976959E-003  1.864475738671291E-003  1.910528289416476E-003 
 1.957718338165068E-003  2.006073981117760E-003  2.055624008451360E-003  2.106397921460103E-003 
 2.158425950120178E-003  2.211739071088131E-003  2.266369026144010E-003  2.322348341089762E-003 
 2.379710345114687E-003  2.438489190639015E-003  2.498719873647867E-003  2.560438254526881E-003 
 2.623681079413725E-003  2.688486002075152E-003  2.754891606326452E-003  2.822937429002722E-003 
 2.892663983499142E-003  2.964112783891491E-003  3.037326369653713E-003  3.112348330984028E-003 
 3.189223334759332E-003  3.267997151127906E-003  3.348716680760913E-003  3.431429982775632E-003 
 3.516186303350178E-003  3.603036105042901E-003  3.692031096837418E-003  3.783224264929427E-003 
 3.876669904273072E-003  3.972423650908592E-003  4.070542515086152E-003  4.171084915208765E-003 
 4.274110712614328E-003  4.379681247216056E-003  4.487859374022272E-003  4.598709500560474E-003 
 4.712297625224433E-003  4.828691376567535E-003  4.947960053568685E-003  5.070174666891793E-003 
 5.195407981164183E-003  5.323734558298839E-003  5.455230801888778E-003  5.589975002695516E-003 
 5.728047385262123E-003  5.869530155677956E-003  6.014507550523364E-003  6.163065887021214E-003 
 6.315293614430625E-003  6.471281366707040E-003  6.631122016464775E-003  6.794910730271308E-003 
 6.962745025309188E-003  7.134724827434101E-003  7.310952530671790E-003  7.491533058179478E-003 
 7.676573924716401E-003  7.866185300656910E-003  8.060480077583232E-003  8.259573935499582E-003 
 8.463585411706220E-003  8.672635971375393E-003  8.886850079868442E-003  9.106355276841198E-003 
 9.331282252179099E-003  9.561764923807961E-003  9.797940517425959E-003  1.003994964820641E-002 
 1.028793640451721E-002  1.054204843370885E-002  1.080243703002141E-002  1.106925722466279E-002 
 1.134266787811204E-002  1.162283177470136E-002  1.190991571953663E-002  1.220409063780905E-002 
 1.250553167656297E-002  1.281441830897413E-002  1.313093444120582E-002  1.345526852190360E-002 
 1.378761365439455E-002  1.412816771165804E-002  1.447713345413593E-002  1.483471865045327E-002 
 1.520113620111934E-002  1.557660426528701E-002  1.596134639063969E-002  1.635559164648834E-002 
 1.675957476015679E-002  1.717353625673264E-002  1.759772260227378E-002  1.803238635055012E-002 
 1.847778629340857E-002  1.893418761485589E-002  1.940186204894283E-002  1.988108804155170E-002 
 2.037215091617798E-002  2.087534304380747E-002  2.139096401698970E-002  2.191932082820919E-002 
 2.246072805266594E-002  2.301550803556679E-002  2.358399108404541E-002  2.416651566382122E-002 
 2.476342860071686E-002  2.537508528715418E-002  2.600184989374834E-002  2.664409558612450E-002 
 2.730220474710168E-002  2.797656920435351E-002  2.866759046370286E-002  2.937567994815529E-002 
 3.010125924287396E-002  3.084476034617393E-002  3.160662592672382E-002  3.238730958711333E-002 
 3.318727613391616E-002  3.400700185442369E-002  3.484697480022784E-002  3.570769507779437E-002 
 3.658967514621478E-002  3.749344012232685E-002  3.841952809334795E-002  3.936849043725290E-002 
 4.034089215105488E-002  4.133731218718476E-002  4.235834379820781E-002  4.340459489002423E-002 
 4.447668838380733E-002  4.557526258688673E-002  4.670097157278383E-002  4.785448557063166E-002 
 4.903649136422517E-002  5.024769270092197E-002  5.148881071063464E-002  5.276058433518826E-002 
 5.406377076826748E-002  5.539914590624341E-002  5.676750481012695E-002  5.816966217893882E-002 
 5.960645283475728E-002  6.107873221977562E-002  6.258737690560583E-002  6.413328511517266E-002 
 6.571737725751770E-002  6.734059647577928E-002  6.900390920872915E-002  7.070830576618511E-002 
 7.245480091860998E-002  7.424443450130154E-002  7.607827203348358E-002  7.795740535271020E-002 
 7.988295326492041E-002  8.185606221056467E-002  8.387790694716492E-002  8.594969124876181E-002 
 8.807264862260512E-002  9.024804304358319E-002  9.247716970675919E-002  9.476135579851747E-002 
 9.710196128674163E-002  9.950037973052235E-002  1.019580391098682E-001  1.044764026758807E-001 
 1.070569698219741E-001  1.097012769765772E-001  1.124108985178997E-001  1.151874477112924E-001 
 1.180325776697594E-001  1.209479823382023E-001  1.239353975019560E-001  1.269966018202554E-001 
 1.301334178852147E-001  1.333477133069810E-001  1.366414018256638E-001  1.400164444507561E-001 
 1.434748506286909E-001  1.470186794392189E-001  1.506500408213685E-001  1.543710968296547E-001 
 1.581840629213487E-001  1.620912092755063E-001  1.660948621446098E-001  1.701974052395809E-001 
 1.744012811490001E-001  1.787089927933791E-001  1.831231049153768E-001  1.876462456067851E-001 
 1.922811078732749E-001  1.970304512377436E-001  2.018971033833162E-001  2.068839618368835E-001 
 2.119939956942549E-001  2.172302473879030E-001  2.225958344983847E-001  2.280939516104942E-001 
 2.337278722152728E-001  2.395009506589895E-001  2.454166241402765E-001  2.514784147565423E-001 
 2.576899316010182E-001  2.640548729115534E-001  2.705770282724880E-001  2.772602808708126E-001 
 2.841086098083260E-001  2.911260924705963E-001  2.983169069546024E-001  3.056853345563764E-001 
 3.132357623199374E-001  3.209726856492264E-001  3.289007109847736E-001  3.370245585460995E-001 
 3.453490651421915E-001  3.538791870512029E-001  3.626200029713504E-001  3.715767170447441E-001 
 3.807546619557576E-001  3.901593021060636E-001  3.997962368680904E-001  4.096712039187296E-001 
 4.197900826555153E-001  4.301588976971053E-001  4.407838224702352E-001  4.516711828852442E-001 
 4.628274611025144E-001  4.742592993917286E-001  4.859735040867004E-001  4.979770496376596E-001 
 5.102770827636977E-001  5.228809267079617E-001  5.357960855976458E-001  5.490302489119029E-001 
 5.625912960600449E-001  5.764873010727130E-001  5.907265374092173E-001  6.053174828832149E-001 
 6.202688247104358E-001  6.355894646808015E-001  6.512885244583961E-001  6.673753510125167E-001 
 6.838595221825293E-001  7.007508523804414E-001  7.180593984342346E-001  7.357954655755727E-001 
 7.539696135752753E-001  7.725926630305827E-001  7.916757018074587E-001  8.112300916421014E-001 
 8.312674749056655E-001  8.517997815358314E-001  8.728392361397578E-001  8.943983652723981E-001 
 9.164900048946423E-001  9.391273080155325E-001  9.623237525235292E-001  9.860931492108521E-001 
 1.010449649996365E+000  1.035407756351271E+000  1.060982327933135E+000  1.087188591433086E+000 
 1.114042149641501E+000  1.141558990737645E+000  1.169755497808856E+000  1.198648458604736E+000 
 1.228255075532273E+000  1.258592975897915E+000  1.289680222402591E+000  1.321535323895942E+000 
 1.354177246396162E+000  1.387625424382167E+000  1.421899772364386E+000  1.457020696741794E+000 
 1.493009107951318E+000  1.529886432917710E+000  1.567674627810783E+000  1.606396191117703E+000 
 1.646074177038325E+000  1.686732209211161E+000  1.728394494778667E+000  1.771085838799717E+000 
 1.814831659018054E+000  1.859658000995807E+000  1.905591553620418E+000
    </PP_RAB>
  </PP_MESH>
  <PP_LOCAL type="real" size="527" columns="4">
-1.978693393692400E+001 -1.978693402819100E+001 -1.978693411793960E+001 -1.978693420624140E+001 
-1.978693429316760E+001 -1.978693437878960E+001 -1.978693446317900E+001 -1.978693454640820E+001 
-1.978693462854940E+001 -1.978693470967600E+001 -1.978693478986160E+001 -1.978693486918100E+001 
-1.978693494770960E+001 -1.978693502552380E+001 -1.978693510270180E+001 -1.978693517932240E+001 
-1.978693525546600E+001 -1.978693533121480E+001 -1.978693540665300E+001 -1.978693548186620E+001 
-1.978693555694240E+001 -1.978693563197180E+001 -1.978693570704740E+001 -1.978693578226440E+001 
-1.978693585772160E+001 -1.978693593352000E+001 -1.978693600976520E+001 -1.978693608656540E+001 
-1.978693616403320E+001 -1.978693624228560E+001 -1.978693632144380E+001 -1.978693640163420E+001 
-1.978693648298840E+001 -1.978693656564300E+001 -1.978693664974160E+001 -1.978693673543360E+001 
-1.978693682287560E+001 -1.978693691223120E+001 -1.978693700367280E+001 -1.978693709738040E+001 
-1.978693719354360E+001 -1.978693729236180E+001 -1.978693739404480E+001 -1.978693749881360E+001 
-1.978693760690140E+001 -1.978693771855440E+001 -1.978693783403260E+001 -1.978693795361100E+001 
-1.978693807758080E+001 -1.978693820625040E+001 -1.978693833994680E+001 -1.978693847901700E+001 
-1.978693862382980E+001 -1.978693877477680E+001 -1.978693893227520E+001 -1.978693909676900E+001 
-1.978693926873160E+001 -1.978693944866760E+001 -1.978693963711600E+001 -1.978693983465300E+001 
-1.978694004189440E+001 -1.978694025949960E+001 -1.978694048817520E+001 -1.978694072867880E+001 
-1.978694098182320E+001 -1.978694124848200E+001 -1.978694152959440E+001 -1.978694182617100E+001 
-1.978694213930060E+001 -1.978694247015680E+001 -1.978694282000660E+001 -1.978694319021820E+001 
-1.978694358227100E+001 -1.978694399776660E+001 -1.978694443843940E+001 -1.978694490617040E+001 
-1.978694540300140E+001 -1.978694593115100E+001 -1.978694649303160E+001 -1.978694709127040E+001 
-1.978694772873000E+001 -1.978694840853380E+001 -1.978694913409220E+001 -1.978694990913420E+001 
-1.978695073774040E+001 -1.978695162438140E+001 -1.978695257396020E+001 -1.978695359185980E+001 
-1.978695468399640E+001 -1.978695585688000E+001 -1.978695711768140E+001 -1.978695847430860E+001 