<UPF version="2.0.1">
  <PP_INFO>
    Generated by new atomic code, or converted to UPF format
    Author: 
    Generation date: 
    Pseudopotential type: US
    Element: Zn
    Functional:  SLA  PW   PBX  PBC

    Suggested minimum cutoff for wavefunctions:   0. Ry
    Suggested minimum cutoff for charge density:   0. Ry
    The Pseudo was generated with a Scalar-Relativistic Calculation
    L component and cutoff radius for Local Potential:  0   0.0000

    Valence configuration: 
    nl pn  l   occ       Rcut    Rcut US       E pseu
    3D  0  2 10.00      0.800      2.000     0.000000
    4S  0  0  2.00      0.800      2.000     0.000000

    Generation configuration: not available.
  </PP_INFO>
  <!--                               -->
  <!-- END OF HUMAN READABLE SECTION -->
  <!--                               -->
  <PP_HEADER generated="Generated by uspp-736,  converted to UPF format"
             author="Wenchang Lu"
             date=""
             comment=""
             element="Zn"
             pseudo_type="US"
             relativistic="scalar"
             is_ultrasoft="T"
             is_paw="F"
             is_coulomb="F"
             has_so="F"
             has_wfc="F"
             has_gipaw="F"
             paw_as_gipaw="F"
             core_correction="F"
             functional=" SLA  PW   PBX  PBC"
             z_valence="1.200000000000000E+001"
             total_psenergy="-1.265006058307100E+002"
             wfc_cutoff="0.000000000000000E+000"
             rho_cutoff="0.000000000000000E+000"
             l_max="2"
             l_max_rho="0"
             l_local="0"
             mesh_size="869"
             number_of_wfc="2"
             number_of_proj="6"/>
  <PP_MESH dx="Infinity" mesh="869" xmin="-Infinity" rmax="2.024851634730000E+002" zmesh="3.000000000000000E+001">
    <PP_R type="real" size="869" columns="4">
 0.000000000000000E+000  1.412360302670000E-006  2.848862933600000E-006  4.309920572200000E-006 
 5.795952952060000E-006  7.307386981530000E-006  8.844656866359999E-006  1.040820423440000E-005 
 1.199847826270000E-005  1.361593580600000E-005  1.526104152870000E-005  1.693426803770000E-005 
 1.863609601880000E-005  2.036701437410000E-005  2.212752036300000E-005  2.391811974490000E-005 
 2.573932692410000E-005  2.759166509840000E-005  2.947566640860000E-005  3.139187209190000E-005 
 3.334083263700000E-005  3.532310794270000E-005  3.733926747820000E-005  3.938989044730000E-005 
 4.147556595410000E-005  4.359689317290000E-005  4.575448151990000E-005  4.794895082860000E-005 
 5.018093152740000E-005  5.245106482140000E-005  5.476000287570000E-005  5.710840900380000E-005 
 5.949695785710000E-005  6.192633561960000E-005  6.439724020440000E-005  6.691038145470000E-005 
 6.946648134730001E-005  7.206627420020001E-005  7.471050688370001E-005  7.739993903450000E-005 
 8.013534327459999E-005  8.291750543250000E-005  8.574722476980000E-005  8.862531420990000E-005 
 9.155260057230000E-005  9.452992480970000E-005  9.755814224970001E-005  1.006381228410000E-004 
 1.037707514010000E-004  1.069569278750000E-004  1.101975675900000E-004  1.134936015170000E-004 
 1.168459765440000E-004  1.202556557440000E-004  1.237236186510000E-004  1.272508615450000E-004 
 1.308383977320000E-004  1.344872578440000E-004  1.381984901280000E-004  1.419731607470000E-004 
 1.458123540930000E-004  1.497171730910000E-004  1.536887395210000E-004  1.577281943350000E-004 
 1.618366979930000E-004  1.660154307860000E-004  1.702655931850000E-004  1.745884061780000E-004 
 1.789851116260000E-004  1.834569726180000E-004  1.880052738330000E-004  1.926313219090000E-004 
 1.973364458200000E-004  2.021219972590000E-004  2.069893510210000E-004  2.119399054020000E-004 
 2.169750826010000E-004  2.220963291280000E-004  2.273051162160000E-004  2.326029402500000E-004 
 2.379913231930000E-004  2.434718130210000E-004  2.490459841750000E-004  2.547154380050000E-004 
 2.604818032360000E-004  2.663467364330000E-004  2.723119224780000E-004  2.783790750530000E-004 
 2.845499371350000E-004  2.908262814910000E-004  2.972099111940000E-004  3.037026601390000E-004 
 3.103063935650000E-004  3.170230085980000E-004  3.238544347910000E-004  3.308026346810000E-004 
 3.378696043510000E-004  3.450573740040000E-004  3.523680085490000E-004  3.598036081880000E-004 
 3.673663090260000E-004  3.750582836800000E-004  3.828817419060000E-004  3.908389312310000E-004 
 3.989321376030000E-004  4.071636860430000E-004  4.155359413150000E-004  4.240513086070000E-004 
 4.327122342190000E-004  4.415212062660000E-004  4.504807553970000E-004  4.595934555160000E-004 
 4.688619245260000E-004  4.782888250790000E-004  4.878768653400000E-004  4.976287997680000E-004 
 5.075474299050000E-004  5.176356051820000E-004  5.278962237360000E-004  5.383322332440001E-004 
 5.489466317699999E-004  5.597424686260000E-004  5.707228452450000E-004  5.818909160790000E-004 
 5.932498894970000E-004  6.048030287130000E-004  6.165536527199999E-004  6.285051372450000E-004 
 6.406609157190000E-004  6.530244802610000E-004  6.655993826839999E-004  6.783892355140000E-004 
 6.913977130280000E-004  7.046285523110000E-004  7.180855543270000E-004  7.317725850100000E-004 
 7.456935763820000E-004  7.598525276730000E-004  7.742535064759999E-004  7.889006499130000E-004 
 8.037981658250000E-004  8.189503339810000E-004  8.343615073050000E-004  8.500361131290000E-004 
 8.659786544640000E-004  8.821937112930000E-004  8.986859418880000E-004  9.154600841490000E-004 
 9.325209569620000E-004  9.498734615850000E-004  9.675225830570000E-004  9.854733916300001E-004 
 1.003731044220000E-003  1.022300785910000E-003  1.041187951410000E-003  1.060397966640000E-003 
 1.079936350280000E-003  1.099808715320000E-003  1.120020770700000E-003  1.140578322960000E-003 
 1.161487277890000E-003  1.182753642220000E-003  1.204383525370000E-003  1.226383141180000E-003 
 1.248758809730000E-003  1.271516959100000E-003  1.294664127270000E-003  1.318206963980000E-003 
 1.342152232620000E-003  1.366506812210000E-003  1.391277699360000E-003  1.416472010240000E-003 
 1.442096982710000E-003  1.468159978330000E-003  1.494668484470000E-003  1.521630116540000E-003 
 1.549052620080000E-003  1.576943873040000E-003  1.605311888050000E-003  1.634164814680000E-003 
 1.663510941830000E-003  1.693358700060000E-003  1.723716664070000E-003  1.754593555100000E-003 
 1.785998243490000E-003  1.817939751210000E-003  1.850427254410000E-003  1.883470086150000E-003 
 1.917077738980000E-003  1.951259867730000E-003  1.986026292270000E-003  2.021387000310000E-003 
 2.057352150310000E-003  2.093932074350000E-003  2.131137281150000E-003  2.168978459030000E-003 
 2.207466479030000E-003  2.246612398020000E-003  2.286427461870000E-003  2.326923108660000E-003 
 2.368110972020000E-003  2.410002884420000E-003  2.452610880600000E-003  2.495947201010000E-003 
 2.540024295340000E-003  2.584854826070000E-003  2.630451672170000E-003  2.676827932710000E-003 
 2.723996930710000E-003  2.771972216900000E-003  2.820767573640000E-003  2.870397018920000E-003 
 2.920874810290000E-003  2.972215449060000E-003  3.024433684410000E-003  3.077544517600000E-003 
 3.131563206370000E-003  3.186505269230000E-003  3.242386489980000E-003  3.299222922210000E-003 
 3.357030893930000E-003  3.415827012250000E-003  3.475628168150000E-003  3.536451541350000E-003 
 3.598314605240000E-003  3.661235131860000E-003  3.725231197070000E-003  3.790321185710000E-003 
 3.856523796850000E-003  3.923858049250000E-003  3.992343286710000E-003  4.061999183730000E-003 
 4.132845751100000E-003  4.204903341660000E-003  4.278192656170000E-003  4.352734749230000E-003 
 4.428551035330000E-003  4.505663295040000E-003  4.584093681200000E-003  4.663864725360000E-003 
 4.744999344190000E-003  4.827520846100000E-003  4.911452937910000E-003  4.996819731700000E-003 
 5.083645751690000E-003  5.171955941310000E-003  5.261775670380000E-003  5.353130742360000E-003 
 5.446047401800000E-003  5.540552341860000E-003  5.636672711970000E-003  5.734436125670000E-003 
 5.833870668490000E-003  5.935004906040000E-003  6.037867892240000E-003  6.142489177630000E-003 
 6.248898817880000E-003  6.357127382420000E-003  6.467205963240000E-003  6.579166183760000E-003 
 6.693040208000000E-003  6.808860749760000E-003  6.926661082040000E-003  7.046475046600000E-003 
 7.168337063670000E-003  7.292282141850000E-003  7.418345888160000E-003  7.546564518270000E-003 
 7.676974866930000E-003  7.809614398490000E-003  7.944521217730000E-003  8.081734080770000E-003 
 8.221292406210000E-003  8.363236286450000E-003  8.507606499220000E-003  8.654444519290001E-003 
 8.803792530390001E-003  8.955693437310000E-003  9.110190878240000E-003  9.267329237300000E-003 
 9.427153657300000E-003  9.589710052710001E-003  9.755045122840001E-003  9.923206365240000E-003 
 1.009424208940000E-002  1.026820143060000E-002  1.044513436390000E-002  1.062509171880000E-002 
 1.080812519350000E-002  1.099428737000000E-002  1.118363172910000E-002  1.137621266580000E-002 
 1.157208550480000E-002  1.177130651670000E-002  1.197393293370000E-002  1.218002296650000E-002 
 1.238963582080000E-002  1.260283171430000E-002  1.281967189410000E-002  1.304021865410000E-002 
 1.326453535320000E-002  1.349268643320000E-002  1.372473743750000E-002  1.396075502990000E-002 
 1.420080701360000E-002  1.444496235100000E-002  1.469329118310000E-002  1.494586485000000E-002 
 1.520275591120000E-002  1.546403816670000E-002  1.572978667760000E-002  1.600007778850000E-002 
 1.627498914860000E-002  1.655459973480000E-002  1.683898987380000E-002  1.712824126530000E-002 
 1.742243700560000E-002  1.772166161150000E-002  1.802600104450000E-002  1.833554273530000E-002 
 1.865037560930000E-002  1.897059011200000E-002  1.929627823460000E-002  1.962753354120000E-002 
 1.996445119490000E-002  2.030712798570000E-002  2.065566235810000E-002  2.101015443910000E-002 
 2.137070606740000E-002  2.173742082270000E-002  2.211040405490000E-002  2.248976291500000E-002 
 2.287560638530000E-002  2.326804531130000E-002  2.366719243300000E-002  2.407316241760000E-002 
 2.448607189260000E-002  2.490603947890000E-002  2.533318582480000E-002  2.576763364150000E-002 
 2.620950773720000E-002  2.665893505400000E-002  2.711604470340000E-002  2.758096800440000E-002 
 2.805383852040000E-002  2.853479209790000E-002  2.902396690560000E-002  2.952150347390000E-002 
 3.002754473540000E-002  3.054223606610000E-002  3.106572532680000E-002  3.159816290590000E-002 
 3.213970176220000E-002  3.269049746950000E-002  3.325070826080000E-002  3.382049507370000E-002 
 3.440002159690000E-002  3.498945431730000E-002  3.558896256740000E-002  3.619871857430000E-002 
 3.681889750920000E-002  3.744967753750000E-002  3.809123987000000E-002  3.874376881530000E-002 
 3.940745183210000E-002  4.008247958390000E-002  4.076904599310000E-002  4.146734829680000E-002 
 4.217758710380000E-002  4.289996645210000E-002  4.363469386710000E-002  4.438198042190000E-002 
 4.514204079740000E-002  4.591509334430000E-002  4.670136014560000E-002  4.750106708050000E-002 
 4.831444388940000E-002  4.914172423970000E-002  4.998314579310000E-002  5.083895027350000E-002 
 5.170938353720000E-002  5.259469564280000E-002  5.349514092320000E-002  5.441097805910000E-002 
 5.534247015260000E-002  5.628988480350000E-002  5.725349418550000E-002  5.823357512520000E-002 
 5.923040918070000E-002  6.024428272320000E-002  6.127548701890000E-002  6.232431831290000E-002 
 6.339107791409999E-002  6.447607228190000E-002  6.557961311420001E-002  6.670201743690000E-002 
 6.784360769500000E-002  6.900471184540000E-002  7.018566345080000E-002  7.138680177570000E-002 
 7.260847188400001E-002  7.385102473780000E-002  7.511481729850000E-002  7.640021262920001E-002 
 7.770757999930000E-002  7.903729498990000E-002  8.038973960250000E-002  8.176530236830000E-002 
 8.316437845990000E-002  8.458736980459999E-002  8.603468520040000E-002  8.750674043310000E-002 
 8.900395839550000E-002  9.052676920940000E-002  9.207561034900000E-002  9.365092676620000E-002 
 9.525317101910000E-002  9.688280340130000E-002  9.854029207480000E-002  1.002261132040000E-001 
 1.019407510930000E-001  1.036846983230000E-001  1.054584558970000E-001  1.072625333820000E-001 
 1.090974490530000E-001  1.109637300470000E-001  1.128619125100000E-001  1.147925417530000E-001 
 1.167561724090000E-001  1.187533685900000E-001  1.207847040530000E-001  1.228507623600000E-001 
 1.249521370510000E-001  1.270894318090000E-001  1.292632606380000E-001  1.314742480370000E-001 
 1.337230291810000E-001  1.360102500990000E-001  1.383365678670000E-001  1.407026507910000E-001 
 1.431091786000000E-001  1.455568426430000E-001  1.480463460870000E-001  1.505784041190000E-001 
 1.531537441480000E-001  1.557731060210000E-001  1.584372422300000E-001  1.611469181290000E-001 
 1.639029121560000E-001  1.667060160540000E-001  1.695570351020000E-001  1.724567883410000E-001 
 1.754061088150000E-001  1.784058438060000E-001  1.814568550810000E-001  1.845600191350000E-001 
 1.877162274480000E-001  1.909263867370000E-001  1.941914192190000E-001  1.975122628750000E-001 
 2.008898717190000E-001  2.043252160710000E-001  2.078192828410000E-001  2.113730758060000E-001 
 2.149876159020000E-001  2.186639415170000E-001  2.224031087870000E-001  2.262061919030000E-001 
 2.300742834180000E-001  2.340084945580000E-001  2.380099555480000E-001  2.420798159280000E-001 
 2.462192448920000E-001  2.504294316170000E-001  2.547115856080000E-001  2.590669370450000E-001 
 2.634967371370000E-001  2.680022584790000E-001  2.725847954200000E-001  2.772456644350000E-001 
 2.819862045010000E-001  2.868077774840000E-001  2.917117685270000E-001  2.966995864540000E-001 
 3.017726641660000E-001  3.069324590630000E-001  3.121804534510000E-001  3.175181549800000E-001 
 3.229470970670000E-001  3.284688393430000E-001  3.340849680960000E-001  3.397970967320000E-001 
 3.456068662360000E-001  3.515159456410000E-001  3.575260325110000E-001  3.636388534290000E-001 
 3.698561644900000E-001  3.761797518060000E-001  3.826114320210000E-001  3.891530528340000E-001 
 3.958064935260000E-001  4.025736655000000E-001  4.094565128350000E-001  4.164570128390000E-001 
 4.235771766210000E-001  4.308190496650000E-001  4.381847124230000E-001  4.456762809050000E-001 
 4.532959072960000E-001  4.610457805650000E-001  4.689281271030000E-001  4.769452113530000E-001 
 4.850993364700000E-001  4.933928449770000E-001  5.018281194360000E-001  5.104075831400000E-001 
 5.191337008020001E-001  5.280089792679999E-001  5.370359682319999E-001  5.462172609750000E-001 
 5.555554951030000E-001  5.650533533110000E-001  5.747135641500000E-001  5.845389028120000E-001 
 5.945321919250000E-001  6.046963023690000E-001  6.150341540960000E-001  6.255487169710000E-001 
 6.362430116240000E-001  6.471201103180000E-001  6.581831378350000E-001  6.694352723670000E-001 
 6.808797464360000E-001  6.925198478160000E-001  7.043589204850000E-001  7.164003655780000E-001 
 7.286476423700000E-001  7.411042692660000E-001  7.537738248140000E-001  7.666599487320001E-001 
 7.797663429550000E-001  7.930967726960000E-001  8.066550675290000E-001  8.204451224900000E-001 
 8.344708991949999E-001  8.487364269780000E-001  8.632458040490000E-001  8.780031986720001E-001 
 8.930128503610000E-001  9.082790710970000E-001  9.238062465710000E-001  9.395988374399999E-001 
 9.556613806100001E-001  9.719984905370000E-001  9.886148605590001E-001  1.005515264240000E+000 
 1.022704556730000E+000  1.040187676190000E+000  1.057969645170000E+000  1.076055572100000E+000 
 1.094450652710000E+000  1.113160171540000E+000  1.132189503490000E+000  1.151544115320000E+000 
 1.171229567220000E+000  1.191251514450000E+000  1.211615708920000E+000  1.232328000880000E+000 
 1.253394340560000E+000  1.274820779920000E+000  1.296613474350000E+000  1.318778684490000E+000 
 1.341322777950000E+000  1.364252231230000E+000  1.387573631520000E+000  1.411293678590000E+000 
 1.435419186770000E+000  1.459957086830000E+000  1.484914428060000E+000  1.510298380200000E+000 
 1.536116235580000E+000  1.562375411160000E+000  1.589083450700000E+000  1.616248026910000E+000 
 1.643876943630000E+000  1.671978138120000E+000  1.700559683320000E+000  1.729629790140000E+000 
 1.759196809870000E+000  1.789269236540000E+000  1.819855709370000E+000  1.850965015260000E+000 
 1.882606091330000E+000  1.914788027430000E+000  1.947520068810000E+000  1.980811618760000E+000 
 2.014672241300000E+000  2.049111663920000E+000  2.084139780410000E+000  2.119766653660000E+000 
 2.156002518590000E+000  2.192857785060000E+000  2.230343040870000E+000  2.268469054820000E+000 
 2.307246779770000E+000  2.346687355800000E+000  2.386802113440000E+000  2.427602576880000E+000 
 2.469100467290000E+000  2.511307706230000E+000  2.554236419020000E+000  2.597898938230000E+000 
 2.642307807280000E+000  2.687475783960000E+000  2.733415844170000E+000  2.780141185600000E+000 
 2.827665231520000E+000  2.876001634690000E+000  2.925164281210000E+000  2.975167294550000E+000 
 3.026025039630000E+000  3.077752126880000E+000  3.130363416500000E+000  3.183874022690000E+000 
 3.238299318010000E+000  3.293654937790000E+000  3.349956784650000E+000  3.407221033000000E+000 
 3.465464133750000E+000  3.524702819030000E+000  3.584954106960000E+000  3.646235306570000E+000 
 3.708564022760000E+000  3.771958161360000E+000  3.836435934300000E+000  3.902015864770000E+000 
 3.968716792630000E+000  4.036557879770000E+000  4.105558615610000E+000  4.175738822730000E+000 
 4.247118662550000E+000  4.319718641110000E+000  4.393559614980000E+000  4.468662797250000E+000 
 4.545049763600000E+000  4.622742458540000E+000  4.701763201660000E+000  4.782134694110000E+000 
 4.863880025050000E+000  4.947022678350000E+000  5.031586539260000E+000  5.117595901360000E+000 
 5.205075473470000E+000  5.294050386770000E+000  5.384546202050000E+000  5.476588916990000E+000 
 5.570204973680000E+000  5.665421266210000E+000  5.762265148380000E+000  5.860764441560000E+000 
 5.960947442680000E+000  6.062842932400000E+000  6.166480183300000E+000  6.271888968370000E+000 
 6.379099569510000E+000  6.488142786250000E+000  6.599049944610000E+000  6.711852906050000E+000 
 6.826584076680000E+000  6.943276416560000E+000  7.061963449130000E+000  7.182679270880000E+000 
 7.305458561130000E+000  7.430336592000000E+000  7.557349238520000E+000  7.686532988970000E+000 
 7.817924955350000E+000  7.951562884020000E+000  8.087485166570000E+000  8.225730850850001E+000 
 8.366339652170000E+000  8.509351964700000E+000  8.654808873129999E+000  8.802752164410000E+000 
 8.953224339780000E+000  9.106268626990000E+000  9.261928992700000E+000  9.420250155110001E+000 
 9.581277596850001E+000  9.745057577960001E+000  9.911637149290000E+000  1.008106416590000E+001 
 1.025338730090000E+001  1.042865605940000E+001  1.060692079270000E+001  1.078823271290000E+001 
 1.097264390730000E+001  1.116020735360000E+001  1.135097693540000E+001  1.154500745690000E+001 
 1.174235465930000E+001  1.194307523680000E+001  1.214722685240000E+001  1.235486815500000E+001 
 1.256605879580000E+001  1.278085944600000E+001  1.299933181340000E+001  1.322153866110000E+001 
 1.344754382470000E+001  1.367741223120000E+001  1.391120991720000E+001  1.414900404840000E+001 
 1.439086293850000E+001  1.463685606870000E+001  1.488705410810000E+001  1.514152893390000E+001 
 1.540035365170000E+001  1.566360261680000E+001  1.593135145550000E+001  1.620367708700000E+001 
 1.648065774510000E+001  1.676237300100000E+001  1.704890378600000E+001  1.734033241490000E+001 
 1.763674260950000E+001  1.793821952270000E+001  1.824484976300000E+001  1.855672141930000E+001 
 1.887392408630000E+001  1.919654889020000E+001  1.952468851480000E+001  1.985843722840000E+001 
 2.019789091050000E+001  2.054314707950000E+001  2.089430492090000E+001  2.125146531550000E+001 
 2.161473086860000E+001  2.198420593940000E+001  2.235999667080000E+001  2.274221102040000E+001 
 2.313095879080000E+001  2.352635166180000E+001  2.392850322210000E+001  2.433752900210000E+001 
 2.475354650700000E+001  2.517667525050000E+001  2.560703678930000E+001  2.604475475810000E+001 
 2.648995490460000E+001  2.694276512630000E+001  2.740331550690000E+001  2.787173835340000E+001 
 2.834816823470000E+001  2.883274201990000E+001  2.932559891780000E+001  2.982688051640000E+001 
 3.033673082440000E+001  3.085529631190000E+001  3.138272595260000E+001  3.191917126700000E+001 
 3.246478636530000E+001  3.301972799230000E+001  3.358415557190000E+001  3.415823125330000E+001 
 3.474211995720000E+001  3.533598942370000E+001  3.594001025980000E+001  3.655435598920000E+001 
 3.717920310150000E+001  3.781473110300000E+001  3.846112256880000E+001  3.911856319470000E+001 
 3.978724185040000E+001  4.046735063460000E+001  4.115908492930000E+001  4.186264345630000E+001 
 4.257822833450000E+001  4.330604513750000E+001  4.404630295300000E+001  4.479921444270000E+001 
 4.556499590360000E+001  4.634386732980000E+001  4.713605247600000E+001  4.794177892170000E+001 
 4.876127813660000E+001  4.959478554680000E+001  5.044254060290000E+001  5.130478684860000E+001 
 5.218177199040000E+001  5.307374796940000E+001  5.398097103280000E+001  5.490370180840000E+001 
 5.584220537890000E+001  5.679675135800000E+001  5.776761396850000E+001  5.875507212040000E+001 
 5.975940949130000E+001  6.078091460790000E+001  6.181988092880000E+001  6.287660692900000E+001 
 6.395139618530000E+001  6.504455746410000E+001  6.615640480920000E+001  6.728725763300000E+001 
 6.843744080760000E+001  6.960728475830000E+001  7.079712555880000E+001  7.200730502710000E+001 
 7.323817082450000E+001  7.449007655500000E+001  7.576338186670000E+001  7.705845255560000E+001 
 7.837566067060000E+001  7.971538461999999E+001  8.107800928060000E+001  8.246392610800000E+001 
 8.387353324940000E+001  8.530723565760000E+001  8.676544520760000E+001  8.824858081479999E+001 
 8.975706855529999E+001  9.129134178840000E+001  9.285184128120000E+001  9.443901533499999E+001 
 9.605331991410000E+001  9.769521877710000E+001  9.936518360970000E+001  1.010636941600000E+002 
 1.027912383790000E+002  1.045483125540000E+002  1.063354214610000E+002  1.081530785000000E+002 
 1.100018058490000E+002  1.118821346120000E+002  1.137946049720000E+002  1.157397663430000E+002 
 1.177181775330000E+002  1.197304069010000E+002  1.217770325220000E+002  1.238586423520000E+002 
 1.259758343960000E+002  1.281292168840000E+002  1.303194084400000E+002  1.325470382640000E+002 
 1.348127463110000E+002  1.371171834750000E+002  1.394610117770000E+002  1.418449045520000E+002 
 1.442695466470000E+002  1.467356346140000E+002  1.492438769140000E+002  1.517949941160000E+002 
 1.543897191050000E+002  1.570287972970000E+002  1.597129868480000E+002  1.624430588730000E+002 
 1.652197976690000E+002  1.680440009390000E+002  1.709164800230000E+002  1.738380601280000E+002 
 1.768095805680000E+002  1.798318950020000E+002  1.829058716840000E+002  1.860323937070000E+002 
 1.892123592600000E+002  1.924466818870000E+002  1.957362907450000E+002  1.990821308750000E+002 
 2.024851634730000E+002
    </PP_R>
    <PP_RAB type="real" size="869" columns="4">
 1.400424958570000E-006  1.424363268780000E-006  1.448710771000000E-006  1.473474459790000E-006 
 1.498661449280000E-006  1.524278975200000E-006  1.550334396980000E-006  1.576835199830000E-006 
 1.603788996920000E-006  1.631203531550000E-006  1.659086679390000E-006  1.687446450730000E-006 
 1.716290992790000E-006  1.745628592030000E-006  1.775467676590000E-006  1.805816818650000E-006 
 1.836684736940000E-006  1.868080299220000E-006  1.900012524820000E-006  1.932490587240000E-006 
 1.965523816820000E-006  1.999121703360000E-006  2.033293898880000E-006  2.068050220390000E-006 
 2.103400652710000E-006  2.139355351330000E-006  2.175924645350000E-006  2.213119040410000E-006 
 2.250949221750000E-006  2.289426057240000E-006  2.328560600530000E-006  2.368364094230000E-006 
 2.408847973100000E-006  2.450023867370000E-006  2.491903606100000E-006  2.534499220510000E-006 
 2.577822947510000E-006  2.621887233150000E-006  2.666704736260000E-006  2.712288332040000E-006 
 2.758651115760000E-006  2.805806406580000E-006  2.853767751280000E-006  2.902548928230000E-006 
 2.952163951320000E-006  3.002627073990000E-006  3.053952793310000E-006  3.106155854170000E-006 
 3.159251253510000E-006  3.213254244590000E-006  3.268180341440000E-006  3.324045323260000E-006 
 3.380865238980000E-006  3.438656411860000E-006  3.497435444190000E-006  3.557219222040000E-006 
 3.618024920130000E-006  3.679870006780000E-006  3.742772248870000E-006  3.806749717000000E-006 
 3.871820790660000E-006  3.938004163510000E-006  4.005318848750000E-006  4.073784184590000E-006 
 4.143419839800000E-006  4.214245819350000E-006  4.286282470170000E-006  4.359550487010000E-006 
 4.434070918330000E-006  4.509865172430000E-006  4.586955023530000E-006  4.665362618040000E-006 
 4.745110480950000E-006  4.826221522280000E-006  4.908719043660000E-006  4.992626745040000E-006 
 5.077968731470000E-006  5.164769520050000E-006  5.253054046970000E-006  5.342847674670000E-006 
 5.434176199120000E-006  5.527065857240000E-006  5.621543334420000E-006  5.717635772220000E-006 
 5.815370776130000E-006  5.914776423540000E-006  6.015881271760000E-006  6.118714366250000E-006 
 6.223305248990000E-006  6.329683966890000E-006  6.437881080510000E-006  6.547927672790000E-006 
 6.659855357980000E-006  6.773696290740000E-006  6.889483175360000E-006  7.007249275190000E-006 
 7.127028422140000E-006  7.248855026440000E-006  7.372764086510000E-006  7.498791199040000E-006 
 7.626972569170000E-006  7.757345020940000E-006  7.889946007819999E-006  8.024813623500001E-006 
 8.161986612860000E-006  8.301504383030001E-006  8.443407014760000E-006  8.587735273949999E-006 
 8.734530623290000E-006  8.883835234269999E-006  9.035691999200000E-006  9.190144543590000E-006 
 9.347237238670000E-006  9.507015214140000E-006  9.669524371100000E-006  9.834811395310000E-006 
 1.000292377050000E-005  1.017390979220000E-005  1.034781858120000E-005  1.052470009830000E-005 
 1.070460515810000E-005  1.088758544370000E-005  1.107369352200000E-005  1.126298285820000E-005 
 1.145550783140000E-005  1.165132375030000E-005  1.185048686910000E-005  1.205305440340000E-005 
 1.225908454700000E-005  1.246863648840000E-005  1.268177042780000E-005  1.289854759440000E-005 
 1.311903026410000E-005  1.334328177740000E-005  1.357136655730000E-005  1.380335012820000E-005 
 1.403929913450000E-005  1.427928135980000E-005  1.452336574630000E-005  1.477162241470000E-005 
 1.502412268440000E-005  1.528093909380000E-005  1.554214542140000E-005  1.580781670650000E-005 
 1.607802927150000E-005  1.635286074320000E-005  1.663239007530000E-005  1.691669757130000E-005 
 1.720586490710000E-005  1.749997515490000E-005  1.779911280700000E-005  1.810336379970000E-005 
 1.841281553860000E-005  1.872755692310000E-005  1.904767837220000E-005  1.937327185080000E-005 
 1.970443089550000E-005  2.004125064190000E-005  2.038382785180000E-005  2.073226094090000E-005 
 2.108665000750000E-005  2.144709686060000E-005  2.181370504950000E-005  2.218657989390000E-005 
 2.256582851330000E-005  2.295155985850000E-005  2.334388474280000E-005  2.374291587340000E-005 
 2.414876788430000E-005  2.456155736900000E-005  2.498140291380000E-005  2.540842513220000E-005 
 2.584274669950000E-005  2.628449238780000E-005  2.673378910220000E-005  2.719076591690000E-005 
 2.765555411240000E-005  2.812828721350000E-005  2.860910102720000E-005  2.909813368200000E-005 
 2.959552566750000E-005  3.010141987490000E-005  3.061596163770000E-005  3.113929877390000E-005 
 3.167158162800000E-005  3.221296311460000E-005  3.276359876220000E-005  3.332364675770000E-005 
 3.389326799210000E-005  3.447262610650000E-005  3.506188753940000E-005  3.566122157400000E-005 
 3.627080038750000E-005  3.689079910010000E-005  3.752139582540000E-005  3.816277172170000E-005 
 3.881511104380000E-005  3.947860119620000E-005  4.015343278680000E-005  4.083979968160000E-005 
 4.153789906060000E-005  4.224793147420000E-005  4.297010090090000E-005  4.370461480620000E-005 
 4.445168420150000E-005  4.521152370560000E-005  4.598435160550000E-005  4.677038991980000E-005 
 4.756986446210000E-005  4.838300490600000E-005  4.921004485080000E-005  5.005122188940000E-005 
 5.090677767540000E-005  5.177695799360000E-005  5.266201282980000E-005  5.356219644330000E-005 
 5.447776743940000E-005  5.540898884390000E-005  5.635612817860000E-005  5.731945753850000E-005 
 5.829925366930000E-005  5.929579804750000E-005  6.030937696110000E-005  6.134028159170000E-005 
 6.238880809820000E-005  6.345525770190000E-005  6.453993677330000E-005  6.564315691969999E-005 
 6.676523507470000E-005  6.790649358990000E-005  6.906726032660001E-005  7.024786875060000E-005 
 7.144865802810000E-005  7.266997312230000E-005  7.391216489370001E-005  7.517559019970000E-005 
 7.646061199809999E-005  7.776759945070001E-005  7.909692802980000E-005  8.044897962570000E-005 
 8.182414265680000E-005  8.322281218060001E-005  8.464539000790000E-005  8.609228481790001E-005 
 8.756391227530000E-005  8.906069515019999E-005  9.058306343950000E-005  9.213145449010000E-005 
 9.370631312470000E-005  9.530809176970000E-005  9.693725058530000E-005  9.859425759709999E-005 
 1.002795888310000E-004  1.019937284510000E-004  1.037371688950000E-004  1.055104110200000E-004 
 1.073139642450000E-004  1.091483466950000E-004  1.110140853520000E-004  1.129117162090000E-004 
 1.148417844160000E-004  1.168048444460000E-004  1.188014602470000E-004  1.208322054090000E-004 
 1.228976633260000E-004  1.249984273630000E-004  1.271351010290000E-004  1.293082981500000E-004 
 1.315186430420000E-004  1.337667706960000E-004  1.360533269540000E-004  1.383789687000000E-004 
 1.407443640470000E-004  1.431501925250000E-004  1.455971452840000E-004  1.480859252860000E-004 
 1.506172475080000E-004  1.531918391500000E-004  1.558104398440000E-004  1.584738018620000E-004 
 1.611826903370000E-004  1.639378834790000E-004  1.667401728030000E-004  1.695903633520000E-004 
 1.724892739310000E-004  1.754377373410000E-004  1.784366006170000E-004  1.814867252760000E-004 